MPI startup(): shm:tcp fabric is unknown or has been removed from the product, please use ofi or shm:ofi instead.
Siesta Version  : v4.1-b4
Architecture    : x86_64-unknown-linux-gnu--unknown
Compiler version: ifort (IFORT) 2021.9.0 20230302
Compiler flags  : mpiifort -g -O2 -fPIC -xSSE4.2 -fp-model source
PP flags        : -DFC_HAVE_FLUSH -DFC_HAVE_ABORT -DMPI  -DCDF -DNCDF -DNCDF_4
Libraries       : libncdf.a libfdict.a -Wl,--start-group /opt/intel/oneapi/mkl/2022.1.0/lib/inttel64/libmkl_scalapack_lp64.a /opt/intel/oneapi/mkl/2022.1.0/lib/intel64/libmkl_intel_lp64.a /opt/intel/oneapi/mkl/2022.1.0/lib/intel64/libmkl_core.a /opt/intel/oneapi/mkl/2022.1.0/lib/intel64/libmkl_sequential.a /opt/intel/oneapi/mkl/2022.1.0/lib/intel64/libmkl_blacs_intelmpi_lp64.a -Wl,--end-group -lpthread   /opt/intel/oneapi/mkl/2022.1.0/lib/intel64/libmkl_blas95_lp64.a -Wl,--start-group /opt/intel/oneapi/mkl/2022.1.0/lib/intel64/libmkl_intel_lp64.a /opt/intel/oneapi/mkl/2022.1.0/lib/intel64/libmkl_sequential.a /opt/intel/oneapi/mkl/2022.1.0/lib/intel64/libmkl_core.a -Wl,--end-group -L/home2/rong/opt/netcdf_build/build/build/netcdf/4.4.1.1/lib -L/home2/rong/opt/netcdf_build/build/build/netcdf/4.4.1.1/lib -L/home2/rong/opt/netcdf_build/build/build/hdf5/1.8.19/lib -L/home2/rong/opt/netcdf_build/build/build//zlib/1.2.11/lib /home2/rong/opt/netcdf_build/build/build/netcdf/4.4.1.1/lib/libnetcdff.a /home2/rong/opt/netcdf_build/build/build/netcdf/4.4.1.1/lib/libnetcdf.a /home2/rong/opt/netcdf_build/build/build/hdf5/1.8.19/lib/libhdf5_hl.a /home2/rong/opt/netcdf_build/build/build/hdf5/1.8.19/lib/libhdf5.a /home2/rong/opt/netcdf_build/build/build//zlib/1.2.11/lib/libz.a -lcurl -lnetcdff -lnetcdf -lhdf5_hl -lhdf5 -lz
PARALLEL version
NetCDF support
NetCDF-4 support

* Running on 32 nodes in parallel
>> Start of run:  19-MAR-2026  17:36:54

                           ***********************       
                           *  WELCOME TO SIESTA  *       
                           ***********************       

reinit: Reading from standard input
reinit: Dumped input in INPUT_TMP.42246
************************** Dump of input data file ****************************
#(1) General system descriptors
SystemName            Device # Descriptive name of the system
SystemLabel           Device # Short name for naming files
%include STRUCT.fdf
%include KPT.fdf
%include BASIS.fdf
#%include GRIMME.fdf
#%include TS.fdf # for transiesta calculation
#(4) DFT, Grid, SCF
XC.functional         LDA           # LDA or GGA (default = LDA)
XC.authors            CA            # CA (Ceperley-Aldr) = PZ
                                    #    (Perdew-Zunger) - LDA - Default
                                    # PW92 (Perdew-Wang-92) - LDA
                                    # PBE (Perdew-Burke-Ernzerhof) - GGA
MeshCutoff            300.00 Ry     # Default: 50.0 Ry ~ 0.444 Bohr
                                    #         100.0 Ry ~ 0.314 Bohr
MaxSCFIterations      500           # Default: 50
DM.MixingWeight       0.05         # Default: 0.25
DM.NumberPulay        10            # Default: 0
DM.Tolerance          1.d-4         # Default: 1.d-4
DM.UseSaveDM          T             # because of the bug
SCFMustConverge       .true.
SCF.H.Tolerance       1.d-3 eV        #Hamiltonian tolerance
#(5) Eigenvalue problem: order-N or diagonalization
SolutionMethod        Diagon        # or Transiesta
ElectronicTemperature 300.0 K       # Default: 300.0 K
#(6) Molecular dynamics and relaxations
MD.TypeOfRun          CG            # Type of dynamics:
MD.NumCGsteps         0       # 0 for single-point / 100 for gopt
MD.MaxCGDispl         0.2 Bohr      # Default: 0.2 Bohr
MD.MaxForceTol        0.04 eV/Ang   # Default: 0.04 eV/Ang
MD.MaxStressTol       1.0 GPa       # Default: 1.0 GPa
#(8) MS-DFT options
#SlabDipoleCorrection .true.
MSDFT .true.
MSDFT.SD.Voltage 0.0 eV
MSDFT.ElecLeftStart  1
MSDFT.ElecLeftEnd  17
MSDFT.ElecRightStart 91
MSDFT.ElecRightEnd   107
#MSCDFT.QuasiFermiLvl  .true.
#LDOS option
#%block LocalDensityOfStates
# -4.7800 -4.6800 eV
#%endblock LocalDensityOfStates
# Geometry Constraints
#%block Geometry.Constraints
#   position from 1 to 12
#   position from 23 to 32  1. 1. 0.
#   position from 33 to 70
#%endblock Geometry.Constraints
SlabDipoleCorrection .true.
#(9) Output options
#WriteBands            T      # SystemLabel.bands, band structure
#WriteMullikenPop      1      # Mulliken population analysis,
SaveRho               T      # SystemLabel.RHO, rho2xsf(3D),macroave-charge dendity(1D)
SaveDeltaRho          T      # SystemLabel.DRHO
SaveElectrostaticPotential T # SystemLabel.VH , macroave-potential
SaveTotalPotential    T      # SystemLabel.VT
WriteMDXmol           T      # SystemLabel.ANI, optimization
WriteCoorXmol        .true.  # SystemLavel.xyz
WriteCoorStep        .true.  # SystemLabel.XV , rho2xsf
WriteEigenvalues      T      # SystemLabel.out [otherwise ~.EIG]
AllocReportLevel      0      # SystemLabel.alloc, Default: 0
TS.HS.Save           .true.
TS.DE.Save           .true.
************************** End of input data file *****************************

reinit: -----------------------------------------------------------------------
reinit: System Name: Device
reinit: -----------------------------------------------------------------------
reinit: System Label: Device
reinit: -----------------------------------------------------------------------

initatom: Reading input for the pseudopotentials and atomic orbitals ----------
Species number:   1 Atomic number:    8 Label: O
Species number:   2 Atomic number:   38 Label: Sr
Species number:   3 Atomic number:   44 Label: Ru
Species number:   4 Atomic number:   22 Label: Ti
Species number:   5 Atomic number:   56 Label: Ba
 
Ground state valence configuration:   2s02  2p04
Reading pseudopotential information in formatted form from O.psf

Valence configuration for pseudopotential generation:
2s( 2.00) rc: 1.14
2p( 4.00) rc: 1.14
3d( 0.00) rc: 1.14
4f( 0.00) rc: 1.14
Ground state valence configuration:   5s02
Reading pseudopotential information in formatted form from Sr.psf

Pseudopotential generated from a relativistic atomic calculation

Valence configuration for pseudopotential generation:
4s( 2.00) rc: 1.49
4p( 6.00) rc: 1.49
4d( 0.00) rc: 1.99
4f( 0.00) rc: 1.99
Ground state valence configuration:   5s01  4d07
Reading pseudopotential information in formatted form from Ru.psf

Pseudopotential generated from a relativistic atomic calculation

Valence configuration for pseudopotential generation:
5s( 1.00) rc: 2.53
5p( 0.00) rc: 2.66
4d( 7.00) rc: 2.50
4f( 0.00) rc: 2.50
Ground state valence configuration:   4s02  3d02
Reading pseudopotential information in formatted form from Ti.psf

Pseudopotential generated from a relativistic atomic calculation

Valence configuration for pseudopotential generation:
3s( 2.00) rc: 1.30
3p( 6.00) rc: 1.30
3d( 2.00) rc: 1.30
4f( 0.00) rc: 1.98
Ground state valence configuration:   6s02
Reading pseudopotential information in formatted form from Ba.psf

Pseudopotential generated from a relativistic atomic calculation

Valence configuration for pseudopotential generation:
5s( 2.00) rc: 1.73
5p( 6.00) rc: 1.99
5d( 0.00) rc: 2.49
4f( 0.00) rc: 0.50
Semicore shell(s) with  8 electrons included in the valence for
Sr
Semicore shell(s) with  8 electrons included in the valence for
Ti
Semicore shell(s) with  8 electrons included in the valence for
Ba
For O, standard SIESTA heuristics set lmxkb to 3
 (one more than the basis l, including polarization orbitals).
Use PS.lmax or PS.KBprojectors blocks to override.
For Sr, standard SIESTA heuristics set lmxkb to 3
 (one more than the basis l, including polarization orbitals).
Use PS.lmax or PS.KBprojectors blocks to override.
For Ru, standard SIESTA heuristics set lmxkb to 3
 (one more than the basis l, including polarization orbitals).
Use PS.lmax or PS.KBprojectors blocks to override.
For Ti, standard SIESTA heuristics set lmxkb to 3
 (one more than the basis l, including polarization orbitals).
Use PS.lmax or PS.KBprojectors blocks to override.
For Ba, standard SIESTA heuristics set lmxkb to 3
 (one more than the basis l, including polarization orbitals).
Use PS.lmax or PS.KBprojectors blocks to override.

<basis_specs>
===============================================================================
O                    Z=   8    Mass=  16.000        Charge=-0.28000    
Lmxo=2 Lmxkb= 3    BasisType=split      Semic=F
L=0  Nsemic=0  Cnfigmx=2
          n=1  nzeta=2  polorb=0
            splnorm:   0.15000    
               vcte:    40.580    
               rinn:    3.9500    
               qcoe:    0.0000    
               qyuk:    0.0000    
               qwid:   0.10000E-01
                rcs:    4.9527      3.6033    
            lambdas:    1.0000      1.0000    
L=1  Nsemic=0  Cnfigmx=2
          n=1  nzeta=2  polorb=0
            splnorm:   0.15000    
               vcte:    36.780    
               rinn:    4.3500    
               qcoe:    0.0000    
               qyuk:    0.0000    
               qwid:   0.10000E-01
                rcs:    4.9999      3.8975    
            lambdas:    1.0000      1.0000    
L=2  Nsemic=0  Cnfigmx=3
          n=1  nzeta=1  polorb=0
            splnorm:   0.15000    
               vcte:    21.690    
               rinn:   0.93000    
               qcoe:    0.0000    
               qyuk:    0.0000    
               qwid:   0.10000E-01
                rcs:    2.7328    
            lambdas:    1.0000    
-------------------------------------------------------------------------------
L=0  Nkbl=1  erefs: 0.17977+309
L=1  Nkbl=1  erefs: 0.17977+309
L=2  Nkbl=1  erefs: 0.17977+309
L=3  Nkbl=1  erefs: 0.17977+309
===============================================================================
</basis_specs>

atom: Called for O                     (Z =   8)

read_vps: Pseudopotential generation method:
read_vps: ATM3      Troullier-Martins                       
Total valence charge:    6.00000

xc_check: Exchange-correlation functional:
xc_check: Ceperley-Alder
V l=0 = -2*Zval/r beyond r=  1.1278
V l=1 = -2*Zval/r beyond r=  1.1278
V l=2 = -2*Zval/r beyond r=  1.1278
V l=3 = -2*Zval/r beyond r=  1.1138
All V_l potentials equal beyond r=  1.1278
This should be close to max(r_c) in ps generation
All pots = -2*Zval/r beyond r=  1.1278

VLOCAL1: 99.0% of the norm of Vloc inside     34.126 Ry
VLOCAL1: 99.9% of the norm of Vloc inside     77.774 Ry
atom: Maximum radius for 4*pi*r*r*local-pseudopot. charge    1.37759
atom: Maximum radius for r*vlocal+2*Zval:    1.18566
GHOST: No ghost state for L =  0
GHOST: No ghost state for L =  1
GHOST: No ghost state for L =  2
GHOST: No ghost state for L =  3

KBgen: Kleinman-Bylander projectors: 
   l= 0   rc=  1.294105   el= -1.742414   Ekb=  9.135903   kbcos=  0.326910
   l= 1   rc=  1.294105   el= -0.676589   Ekb= -8.124878   kbcos= -0.395047
   l= 2   rc=  1.448233   el=  0.002386   Ekb= -2.039267   kbcos= -0.003484
   l= 3   rc=  1.561052   el=  0.003508   Ekb= -0.799141   kbcos= -0.000344

KBgen: Total number of  Kleinman-Bylander projectors:   16
atom: -------------------------------------------------------------------------

atom: SANKEY-TYPE ORBITALS:
atom: Selected multiple-zeta basis: split     

atom: basis set generated (by rescaling the valence charge)
atom: for an anion of charge  -0.2800

SPLIT: Orbitals with angular momentum L= 0

SPLIT: Basis orbitals for state 2s

   izeta = 1
                 lambda =    1.000000
                     rc =    4.930772
                 energy =   -1.739193
                kinetic =    1.445061
    potential(screened) =   -3.184254
       potential(ionic) =  -10.962557

   izeta = 2
                 rmatch =    3.652726
              splitnorm =    0.027759
                 energy =   -1.717885
* WARNING: effective split_norm is quite small. Orbitals will be very similar.
                kinetic =    1.725080
    potential(screened) =   -3.442965
       potential(ionic) =  -11.514570

SPLIT: Orbitals with angular momentum L= 1

SPLIT: Basis orbitals for state 2p

   izeta = 1
                 lambda =    1.000000
                     rc =    5.055603
                 energy =   -0.666651
                kinetic =    4.372891
    potential(screened) =   -5.039542
       potential(ionic) =  -12.474029

   izeta = 2
                 rmatch =    3.937239
              splitnorm =    0.041494
                 energy =   -0.646289
* WARNING: effective split_norm is quite small. Orbitals will be very similar.
                kinetic =    5.236356
    potential(screened) =   -5.882646
       potential(ionic) =  -13.808487

SPLIT: Orbitals with angular momentum L= 2

SPLIT: Basis orbitals for state 3d

   izeta = 1
                 lambda =    1.000000
                     rc =    2.774434
                 energy =    3.678926
                kinetic =    6.313626
    potential(screened) =   -2.634699
       potential(ionic) =   -9.713508
atom: Total number of Sankey-type orbitals: 13

atm_pop: Valence configuration (for local Pseudopot. screening):
 2s( 2.00)                                                            
 2p( 4.00)                                                            
 3d( 0.00)                                                            
Vna: chval, zval:    6.00000   6.00000

Vna:  Cut-off radius for the neutral-atom potential:   5.055603

atom: _________________________________________________________________________

<basis_specs>
===============================================================================
Sr                   Z=  38    Mass=  87.620        Charge=  2.0000    
Lmxo=2 Lmxkb= 3    BasisType=split      Semic=T
L=0  Nsemic=1  Cnfigmx=5
          n=1  nzeta=1  polorb=0
            splnorm:   0.47124    
               vcte:    0.0000    
               rinn:    0.0000    
               qcoe:    0.0000    
               qyuk:    0.0000    
               qwid:   0.10000E-01
                rcs:    6.0307    
            lambdas:    1.0000    
          n=2  nzeta=2  polorb=0
            splnorm:   0.50000    
               vcte:    0.0000    
               rinn:    0.0000    
               qcoe:    0.0000    
               qyuk:    0.0000    
               qwid:   0.10000E-01
                rcs:    6.0052      0.0000    
            lambdas:    1.0000      1.0000    
L=1  Nsemic=1  Cnfigmx=5
          n=1  nzeta=1  polorb=0
            splnorm:   0.42963    
               vcte:    0.0000    
               rinn:    0.0000    
               qcoe:    0.0000    
               qyuk:    0.0000    
               qwid:   0.10000E-01
                rcs:    6.0000    
            lambdas:    1.0000    
          n=2  nzeta=1  polorb=0
            splnorm:   0.48866    
               vcte:    0.0000    
               rinn:    0.0000    
               qcoe:    0.0000    
               qyuk:    0.0000    
               qwid:   0.10000E-01
                rcs:    6.0964    
            lambdas:    1.0000    
L=2  Nsemic=0  Cnfigmx=4
          n=1  nzeta=1  polorb=0
            splnorm:   0.49990    
               vcte:    0.0000    
               rinn:    0.0000    
               qcoe:    0.0000    
               qyuk:    0.0000    
               qwid:   0.10000E-01
                rcs:    6.0552    
            lambdas:    1.0000    
-------------------------------------------------------------------------------
L=0  Nkbl=2  erefs: 0.17977+309 0.17977+309
L=1  Nkbl=2  erefs: 0.17977+309 0.17977+309
L=2  Nkbl=1  erefs: 0.17977+309
L=3  Nkbl=1  erefs: 0.17977+309
===============================================================================
</basis_specs>

atom: Called for Sr                    (Z =  38)

read_vps: Pseudopotential generation method:
read_vps: ATM3      Troullier-Martins                       
Total valence charge:    8.00000

read_vps: Pseudopotential includes a core correction:
read_vps: Pseudo-core for xc-correction

atom: Pseudopotential generated from an ionic configuration
atom: with net charge 2.00

xc_check: Exchange-correlation functional:
xc_check: Ceperley-Alder
V l=0 = -2*Zval/r beyond r=  2.2816
V l=1 = -2*Zval/r beyond r=  2.2816
V l=2 = -2*Zval/r beyond r=  2.2816
V l=3 = -2*Zval/r beyond r=  2.2816
All V_l potentials equal beyond r=  1.9638
This should be close to max(r_c) in ps generation
All pots = -2*Zval/r beyond r=  2.2816

VLOCAL1: 99.0% of the norm of Vloc inside     11.256 Ry
VLOCAL1: 99.9% of the norm of Vloc inside     25.652 Ry
atom: Maximum radius for 4*pi*r*r*local-pseudopot. charge    2.39860
atom: Maximum radius for r*vlocal+2*Zval:    2.09046
KBgen: More than one KB projector for l=  0
KBgen: ghost states analysis will be not performed
KBgen: More than one KB projector for l=  1
KBgen: ghost states analysis will be not performed
GHOST: No ghost state for L =  2
GHOST: No ghost state for L =  3

KBgen: Kleinman-Bylander projectors: 
   l= 0   rc=  2.368807   el= -4.024060   Ekb= 12.177942   kbcos=  0.260379
   l= 0   rc=  2.684218   el= -1.004169   Ekb= -3.894135   kbcos= -0.054726
   l= 1   rc=  2.459326   el= -2.692845   Ekb=  6.777603   kbcos=  0.221181
   l= 1   rc=  2.786790   el= -0.712482   Ekb= -1.730596   kbcos= -0.034462
   l= 2   rc=  2.752171   el= -0.985826   Ekb=  0.305440   kbcos=  0.250280
   l= 3   rc=  2.684218   el= -0.278451   Ekb= -2.654045   kbcos= -0.041575

KBgen: Total number of  Kleinman-Bylander projectors:   20
atom: -------------------------------------------------------------------------

atom: SANKEY-TYPE ORBITALS:
atom: Selected multiple-zeta basis: split     

atom: basis set generated from the ionic configuration used
atom: to generate the pseudopotential

SPLIT: Orbitals with angular momentum L= 0

SPLIT: Basis orbitals for state 4s

   izeta = 1
                 lambda =    1.000000
                     rc =    6.125150
                 energy =   -4.024203
                kinetic =    1.414409
    potential(screened) =   -5.438612
       potential(ionic) =  -14.153744

SPLIT: Basis orbitals for state 5s

   izeta = 1
                 lambda =    1.000000
                     rc =    5.973918
                 energy =   -0.955032
                kinetic =    1.016130
    potential(screened) =   -1.971162
       potential(ionic) =   -7.154655

   izeta = 2
                 rmatch =    5.271956
              splitnorm =    0.500000
                 energy =   -0.732143
                kinetic =    1.600165
    potential(screened) =   -2.332308
       potential(ionic) =   -8.398201

SPLIT: Orbitals with angular momentum L= 1

SPLIT: Basis orbitals for state 4p

   izeta = 1
                 lambda =    1.000000
                     rc =    5.973918
                 energy =   -2.692895
                kinetic =    2.359973
    potential(screened) =   -5.052868
       potential(ionic) =  -13.252086

SPLIT: Basis orbitals for state 5p

   izeta = 1
                 lambda =    1.000000
                     rc =    6.125150
                 energy =   -0.604649
                kinetic =    1.290410
    potential(screened) =   -1.895058
       potential(ionic) =   -6.702994

SPLIT: Orbitals with angular momentum L= 2

SPLIT: Basis orbitals for state 4d

   izeta = 1
                 lambda =    1.000000
                     rc =    6.125150
                 energy =   -0.977781
                kinetic =    2.289258
    potential(screened) =   -3.267038
       potential(ionic) =   -9.797036
atom: Total number of Sankey-type orbitals: 14

atm_pop: Valence configuration (for local Pseudopot. screening):
 4s( 2.00) 5s( 2.00)                                                  
 4p( 6.00) 5p( 0.00)                                                  
 4d( 0.00)                                                            
Vna: chval, zval:   10.00000  10.00000

Vna:  Cut-off radius for the neutral-atom potential:   6.125150
comcore: Pseudo-core radius Rcore=  2.310319

atom: _________________________________________________________________________

<basis_specs>
===============================================================================
Ru                   Z=  44    Mass=  101.07        Charge= 0.17977+309
Lmxo=2 Lmxkb= 3    BasisType=split      Semic=F
L=0  Nsemic=0  Cnfigmx=5
          n=1  nzeta=2  polorb=1
            splnorm:   0.15000    
               vcte:    0.0000    
               rinn:    0.0000    
               qcoe:    0.0000    
               qyuk:    0.0000    
               qwid:   0.10000E-01
                rcs:    0.0000      0.0000    
            lambdas:    1.0000      1.0000    
L=1  Nsemic=0  Cnfigmx=5
L=2  Nsemic=0  Cnfigmx=4
          n=1  nzeta=2  polorb=0
            splnorm:   0.15000    
               vcte:    0.0000    
               rinn:    0.0000    
               qcoe:    0.0000    
               qyuk:    0.0000    
               qwid:   0.10000E-01
                rcs:    0.0000      0.0000    
            lambdas:    1.0000      1.0000    
-------------------------------------------------------------------------------
L=0  Nkbl=1  erefs: 0.17977+309
L=1  Nkbl=1  erefs: 0.17977+309
L=2  Nkbl=1  erefs: 0.17977+309
L=3  Nkbl=1  erefs: 0.17977+309
===============================================================================
</basis_specs>

atom: Called for Ru                    (Z =  44)

read_vps: Pseudopotential generation method:
read_vps: ATM4.0.2  Troullier-Martins                       
Total valence charge:    8.00000

xc_check: Exchange-correlation functional:
xc_check: Ceperley-Alder
V l=0 = -2*Zval/r beyond r=  4.1198
V l=1 = -2*Zval/r beyond r=  4.1198
V l=2 = -2*Zval/r beyond r=  4.1198
V l=3 = -2*Zval/r beyond r=  4.1198
All V_l potentials equal beyond r=  2.6269
This should be close to max(r_c) in ps generation
All pots = -2*Zval/r beyond r=  4.1198
Using large-core scheme for Vlocal

atom: Estimated core radius    4.11977

atom: Including non-local core corrections could be a good idea
atom: Maximum radius for 4*pi*r*r*local-pseudopot. charge    4.49649
atom: Maximum radius for r*vlocal+2*Zval:    4.17159
GHOST: No ghost state for L =  0
GHOST: No ghost state for L =  1
GHOST: No ghost state for L =  2
GHOST: No ghost state for L =  3

KBgen: Kleinman-Bylander projectors: 
   l= 0   rc=  2.727239   el= -0.330885   Ekb=  2.987889   kbcos=  0.271222
   l= 1   rc=  2.727239   el= -0.076153   Ekb=  1.531575   kbcos=  0.256786
   l= 2   rc=  2.693360   el= -0.398144   Ekb= -5.913526   kbcos= -0.668253
   l= 3   rc=  2.727239   el=  0.003541   Ekb= -2.614532   kbcos= -0.019097

KBgen: Total number of  Kleinman-Bylander projectors:   16
atom: -------------------------------------------------------------------------

atom: SANKEY-TYPE ORBITALS:
atom: Selected multiple-zeta basis: split     

SPLIT: Orbitals with angular momentum L= 0

SPLIT: Basis orbitals for state 5s

SPLIT: PAO cut-off radius determined from an
SPLIT: energy shift=  0.005880 Ry

   izeta = 1
                 lambda =    1.000000
                     rc =    8.091413
                 energy =   -0.325871
                kinetic =    0.262919
    potential(screened) =   -0.588790
       potential(ionic) =   -5.271455

   izeta = 2
                 rmatch =    6.877823
              splitnorm =    0.150000
                 energy =   -0.283351
                kinetic =    0.413122
    potential(screened) =   -0.696473
       potential(ionic) =   -5.700877

SPLIT: Orbitals with angular momentum L= 2

SPLIT: Basis orbitals for state 4d

SPLIT: PAO cut-off radius determined from an
SPLIT: energy shift=  0.005880 Ry

   izeta = 1
                 lambda =    1.000000
                     rc =    5.423818
                 energy =   -0.392335
                kinetic =    4.510207
    potential(screened) =   -4.902543
       potential(ionic) =  -11.961477

   izeta = 2
                 rmatch =    3.090374
              splitnorm =    0.150000
                 energy =   -0.185726
                kinetic =    6.192567
    potential(screened) =   -6.378293
       potential(ionic) =  -14.043867

POLgen: Perturbative polarization orbital with L=  1

POLgen: Polarization orbital for state 5s

   izeta = 1
                     rc =    8.091413
                 energy =   -0.078234
                kinetic =    0.474464
    potential(screened) =   -0.552698
       potential(ionic) =   -4.922276
atom: Total number of Sankey-type orbitals: 15

atm_pop: Valence configuration (for local Pseudopot. screening):
 5s( 1.00)                                                            
 5p( 0.00)                                                            
 4d( 7.00)                                                            
Vna: chval, zval:    8.00000   8.00000

Vna:  Cut-off radius for the neutral-atom potential:   8.091413

atom: _________________________________________________________________________

<basis_specs>
===============================================================================
Ti                   Z=  22    Mass=  47.880        Charge=  1.9100    
Lmxo=2 Lmxkb= 3    BasisType=split      Semic=T
L=0  Nsemic=1  Cnfigmx=4
          n=1  nzeta=1  polorb=0
            splnorm:   0.15000    
               vcte:    93.950    
               rinn:    5.2000    
               qcoe:    0.0000    
               qyuk:    0.0000    
               qwid:   0.10000E-01
                rcs:    5.6995    
            lambdas:    1.0000    
          n=2  nzeta=2  polorb=0
            splnorm:   0.15000    
               vcte:    96.470    
               rinn:    5.6000    
               qcoe:    0.0000    
               qyuk:    0.0000    
               qwid:   0.10000E-01
                rcs:    6.1000      5.0994    
            lambdas:    1.0000      1.0000    
L=1  Nsemic=1  Cnfigmx=4
          n=1  nzeta=1  polorb=0
            splnorm:   0.15000    
               vcte:    95.470    
               rinn:    5.2000    
               qcoe:    0.0000    
               qyuk:    0.0000    
               qwid:   0.10000E-01
                rcs:    5.6994    
            lambdas:    1.0000    
          n=2  nzeta=1  polorb=0
            splnorm:   0.15000    
               vcte:   0.50000    
               rinn:    1.7700    
               qcoe:    0.0000    
               qyuk:    0.0000    
               qwid:   0.10000E-01
                rcs:    3.0537    
            lambdas:    1.0000    
L=2  Nsemic=0  Cnfigmx=3
          n=1  nzeta=2  polorb=0
            splnorm:   0.15000    
               vcte:    46.050    
               rinn:    4.9500    
               qcoe:    0.0000    
               qyuk:    0.0000    
               qwid:   0.10000E-01
                rcs:    5.9433      4.7001    
            lambdas:    1.0000      1.0000    
-------------------------------------------------------------------------------
L=0  Nkbl=2  erefs: 0.17977+309 0.17977+309
L=1  Nkbl=2  erefs: 0.17977+309 0.17977+309
L=2  Nkbl=1  erefs: 0.17977+309
L=3  Nkbl=1  erefs: 0.17977+309
===============================================================================
</basis_specs>

atom: Called for Ti                    (Z =  22)

read_vps: Pseudopotential generation method:
read_vps: ATM3      Troullier-Martins                       
Total valence charge:   10.00000

atom: Pseudopotential generated from an ionic configuration
atom: with net charge 2.00

xc_check: Exchange-correlation functional:
xc_check: Ceperley-Alder
V l=0 = -2*Zval/r beyond r=  1.3619
V l=1 = -2*Zval/r beyond r=  1.3450
V l=2 = -2*Zval/r beyond r=  1.3619
V l=3 = -2*Zval/r beyond r=  1.9570
All V_l potentials equal beyond r=  1.9570
This should be close to max(r_c) in ps generation
All pots = -2*Zval/r beyond r=  1.9570

VLOCAL1: 99.0% of the norm of Vloc inside     11.334 Ry
VLOCAL1: 99.9% of the norm of Vloc inside     25.831 Ry
atom: Maximum radius for 4*pi*r*r*local-pseudopot. charge    2.39028
atom: Maximum radius for r*vlocal+2*Zval:    2.08320
KBgen: More than one KB projector for l=  0
KBgen: ghost states analysis will be not performed
KBgen: More than one KB projector for l=  1
KBgen: ghost states analysis will be not performed
GHOST: No ghost state for L =  2
GHOST: No ghost state for L =  3

KBgen: Kleinman-Bylander projectors: 
   l= 0   rc=  2.135936   el= -5.743976   Ekb= -5.805318   kbcos= -0.455192
   l= 0   rc=  2.245453   el= -1.267778   Ekb= 19.285053   kbcos=  0.028076
   l= 1   rc=  2.135936   el= -4.022769   Ekb= -4.339349   kbcos= -0.763416
   l= 1   rc=  2.273699   el= -0.909433   Ekb= -2.226591   kbcos= -0.073996
   l= 2   rc=  2.109401   el= -1.465431   Ekb=-15.974261   kbcos= -0.485371
   l= 3   rc=  2.390280   el= -0.279946   Ekb= -1.793497   kbcos= -0.025582

KBgen: Total number of  Kleinman-Bylander projectors:   20
atom: -------------------------------------------------------------------------

atom: SANKEY-TYPE ORBITALS:
atom: Selected multiple-zeta basis: split     

atom: basis set generated (by rescaling the valence charge)
atom: for a cation of charge   1.9100

SPLIT: Orbitals with angular momentum L= 0

SPLIT: Basis orbitals for state 3s

   izeta = 1
                 lambda =    1.000000
                     rc =    5.806269
                 energy =   -5.597682
                kinetic =    2.110270
    potential(screened) =   -7.707952
       potential(ionic) =  -22.848412

SPLIT: Basis orbitals for state 4s

   izeta = 1
                 lambda =    1.000000
                     rc =    6.103968
                 energy =   -1.179234
                kinetic =    1.125882
    potential(screened) =   -2.305116
       potential(ionic) =  -10.096665

   izeta = 2
                 rmatch =    5.124001
              splitnorm =    0.277785
                 energy =   -1.061654
                kinetic =    1.729786
    potential(screened) =   -2.791440
       potential(ionic) =  -11.724056

SPLIT: Orbitals with angular momentum L= 1

SPLIT: Basis orbitals for state 3p

   izeta = 1
                 lambda =    1.000000
                     rc =    5.806269
                 energy =   -3.881705
                kinetic =    4.778405
    potential(screened) =   -8.660110
       potential(ionic) =  -23.263886

SPLIT: Basis orbitals for state 4p

   izeta = 1
                 lambda =    1.000000
                     rc =    3.107819
                 energy =    0.770505
                kinetic =    5.534371
    potential(screened) =   -4.763865
       potential(ionic) =  -15.502075

SPLIT: Orbitals with angular momentum L= 2

SPLIT: Basis orbitals for state 3d

   izeta = 1
                 lambda =    1.000000
                     rc =    5.953258
                 energy =   -1.340771
                kinetic =    7.362238
    potential(screened) =   -8.703009
       potential(ionic) =  -21.522617

   izeta = 2
                 rmatch =    4.753750
              splitnorm =    0.009122
                 energy =   -1.328728
* WARNING: effective split_norm is quite small. Orbitals will be very similar.
                kinetic =    7.784434
    potential(screened) =   -9.113162
       potential(ionic) =  -22.268396
atom: Total number of Sankey-type orbitals: 19

atm_pop: Valence configuration (for local Pseudopot. screening):
 3s( 2.00) 4s( 2.00)                                                  
 3p( 6.00) 4p( 0.00)                                                  
 3d( 2.00)                                                            
Vna: chval, zval:   12.00000  12.00000

Vna:  Cut-off radius for the neutral-atom potential:   6.103968

atom: _________________________________________________________________________

<basis_specs>
===============================================================================
Ba                   Z=  56    Mass=  137.33        Charge= 0.70000    
Lmxo=2 Lmxkb= 3    BasisType=split      Semic=T
L=0  Nsemic=1  Cnfigmx=6
          n=1  nzeta=1  polorb=0
            splnorm:   0.15000    
               vcte:    98.950    
               rinn:    5.9000    
               qcoe:    0.0000    
               qyuk:    0.0000    
               qwid:   0.10000E-01
                rcs:    6.3990    
            lambdas:    1.0000    
          n=2  nzeta=2  polorb=0
            splnorm:   0.15000    
               vcte:    97.950    
               rinn:    6.5000    
               qcoe:    0.0000    
               qyuk:    0.0000    
               qwid:   0.10000E-01
                rcs:    6.9996      5.9995    
            lambdas:    1.0000      1.0000    
L=1  Nsemic=1  Cnfigmx=6
          n=1  nzeta=1  polorb=0
            splnorm:   0.15000    
               vcte:    96.950    
               rinn:    6.0900    
               qcoe:    0.0000    
               qyuk:    0.0000    
               qwid:   0.10000E-01
                rcs:    6.5992    
            lambdas:    1.0000    
          n=2  nzeta=1  polorb=0
            splnorm:   0.15000    
               vcte:    94.960    
               rinn:    6.6000    
               qcoe:    0.0000    
               qyuk:    0.0000    
               qwid:   0.10000E-01
                rcs:    7.1000    
            lambdas:    1.0000    
L=2  Nsemic=0  Cnfigmx=5
          n=1  nzeta=1  polorb=0
            splnorm:   0.15000    
               vcte:    95.950    
               rinn:    6.6000    
               qcoe:    0.0000    
               qyuk:    0.0000    
               qwid:   0.10000E-01
                rcs:    7.1000    
            lambdas:    1.0000    
-------------------------------------------------------------------------------
L=0  Nkbl=2  erefs: 0.17977+309 0.17977+309
L=1  Nkbl=2  erefs: 0.17977+309 0.17977+309
L=2  Nkbl=1  erefs: 0.17977+309
L=3  Nkbl=1  erefs: 0.17977+309
===============================================================================
</basis_specs>

atom: Called for Ba                    (Z =  56)

read_vps: Pseudopotential generation method:
read_vps: ATM3      Troullier-Martins                       
Total valence charge:    8.00000

atom: Pseudopotential generated from an ionic configuration
atom: with net charge 2.00

xc_check: Exchange-correlation functional:
xc_check: Ceperley-Alder
V l=0 = -2*Zval/r beyond r=  3.0408
V l=1 = -2*Zval/r beyond r=  3.0408
V l=2 = -2*Zval/r beyond r=  3.0408
V l=3 = -2*Zval/r beyond r=  3.0408
All V_l potentials equal beyond r=  2.3980
This should be close to max(r_c) in ps generation
All pots = -2*Zval/r beyond r=  3.0408

VLOCAL1: 99.0% of the norm of Vloc inside      7.549 Ry
VLOCAL1: 99.9% of the norm of Vloc inside     17.204 Ry
atom: Maximum radius for 4*pi*r*r*local-pseudopot. charge    2.89253
atom: Maximum radius for r*vlocal+2*Zval:    2.55265
KBgen: More than one KB projector for l=  0
KBgen: ghost states analysis will be not performed
KBgen: More than one KB projector for l=  1
KBgen: ghost states analysis will be not performed
GHOST: No ghost state for L =  2
GHOST: No ghost state for L =  3

KBgen: Kleinman-Bylander projectors: 
   l= 0   rc=  3.079089   el= -3.386946   Ekb= 10.724425   kbcos=  0.241185
   l= 0   rc=  3.489071   el= -0.913761   Ekb= -2.933060   kbcos= -0.061684
   l= 1   rc=  3.157038   el= -2.283249   Ekb=  5.047295   kbcos=  0.299477
   l= 1   rc=  3.622397   el= -0.655160   Ekb= -1.272406   kbcos= -0.038998
   l= 2   rc=  3.318905   el= -0.958059   Ekb=  1.647301   kbcos=  0.327554
   l= 3   rc=  2.856602   el= -0.787057   Ekb=-60.816228   kbcos= -0.434775

KBgen: Total number of  Kleinman-Bylander projectors:   20
atom: -------------------------------------------------------------------------

atom: SANKEY-TYPE ORBITALS:
atom: Selected multiple-zeta basis: split     

atom: basis set generated (by rescaling the valence charge)
atom: for a cation of charge   0.7000

SPLIT: Orbitals with angular momentum L= 0

SPLIT: Basis orbitals for state 5s

   izeta = 1
                 lambda =    1.000000
                     rc =    6.518482
                 energy =   -2.111149
                kinetic =    1.019268
    potential(screened) =   -3.130417
       potential(ionic) =  -11.404495

SPLIT: Basis orbitals for state 6s

   izeta = 1
                 lambda =    1.000000
                     rc =    7.026172
                 energy =   -0.144977
                kinetic =    0.699691
    potential(screened) =   -0.844668
       potential(ionic) =   -5.701538

   izeta = 2
                 rmatch =    6.047476
              splitnorm =    0.877005
                 energy =    0.431199
                kinetic =    1.160814
    potential(screened) =   -0.729615
       potential(ionic) =   -6.764926

SPLIT: Orbitals with angular momentum L= 1

SPLIT: Basis orbitals for state 5p

   izeta = 1
                 lambda =    1.000000
                     rc =    6.683499
                 energy =   -1.104428
                kinetic =    1.361081
    potential(screened) =   -2.465510
       potential(ionic) =  -10.040308

SPLIT: Basis orbitals for state 6p

   izeta = 1
                 lambda =    1.000000
                     rc =    7.204041
                 energy =    0.107526
                kinetic =    0.941328
    potential(screened) =   -0.833802
       potential(ionic) =   -5.462010

SPLIT: Orbitals with angular momentum L= 2

SPLIT: Basis orbitals for state 5d

   izeta = 1
                 lambda =    1.000000
                     rc =    7.204041
                 energy =   -0.055970
                kinetic =    1.086999
    potential(screened) =   -1.142969
       potential(ionic) =   -6.717380
atom: Total number of Sankey-type orbitals: 14

atm_pop: Valence configuration (for local Pseudopot. screening):
 5s( 2.00) 6s( 2.00)                                                  
 5p( 6.00) 6p( 0.00)                                                  
 5d( 0.00)                                                            
Vna: chval, zval:   10.00000  10.00000

Vna:  Cut-off radius for the neutral-atom potential:   7.026172

atom: _________________________________________________________________________

prinput: Basis input ----------------------------------------------------------

PAO.BasisType split     

%block ChemicalSpeciesLabel
    1    8 O                       # Species index, atomic number, species label
    2   38 Sr                      # Species index, atomic number, species label
    3   44 Ru                      # Species index, atomic number, species label
    4   22 Ti                      # Species index, atomic number, species label
    5   56 Ba                      # Species index, atomic number, species label
%endblock ChemicalSpeciesLabel

%block PAO.Basis                 # Define Basis set
O                     3  -0.280            # Label, l-shells, ionic net charge
 n=2   0   2                         # n, l, Nzeta 
   4.931      3.653   
   1.000      1.000   
 n=2   1   2                         # n, l, Nzeta 
   5.056      3.937   
   1.000      1.000   
 n=3   2   1                         # n, l, Nzeta 
   2.774   
   1.000   
Sr                    5   2.000            # Label, l-shells, ionic net charge
 n=4   0   1                         # n, l, Nzeta 
   6.125   
   1.000   
 n=5   0   2                         # n, l, Nzeta 
   5.974      5.272   
   1.000      1.000   
 n=4   1   1                         # n, l, Nzeta 
   5.974   
   1.000   
 n=5   1   1                         # n, l, Nzeta 
   6.125   
   1.000   
 n=4   2   1                         # n, l, Nzeta 
   6.125   
   1.000   
Ru                    2                    # Species label, number of l-shells
 n=5   0   2 P   1                   # n, l, Nzeta, Polarization, NzetaPol
   8.091      6.878   
   1.000      1.000   
 n=4   2   2                         # n, l, Nzeta 
   5.424      3.090   
   1.000      1.000   
Ti                    5   1.910            # Label, l-shells, ionic net charge
 n=3   0   1                         # n, l, Nzeta 
   5.806   
   1.000   
 n=4   0   2                         # n, l, Nzeta 
   6.104      5.124   
   1.000      1.000   
 n=3   1   1                         # n, l, Nzeta 
   5.806   
   1.000   
 n=4   1   1                         # n, l, Nzeta 
   3.108   
   1.000   
 n=3   2   2                         # n, l, Nzeta 
   5.953      4.754   
   1.000      1.000   
Ba                    5   0.700            # Label, l-shells, ionic net charge
 n=5   0   1                         # n, l, Nzeta 
   6.518   
   1.000   
 n=6   0   2                         # n, l, Nzeta 
   7.026      6.047   
   1.000      1.000   
 n=5   1   1                         # n, l, Nzeta 
   6.683   
   1.000   
 n=6   1   1                         # n, l, Nzeta 
   7.204   
   1.000   
 n=5   2   1                         # n, l, Nzeta 
   7.204   
   1.000   
%endblock PAO.Basis

prinput: ----------------------------------------------------------------------

Dumping basis to NetCDF file O.ion.nc
Dumping basis to NetCDF file Sr.ion.nc
Dumping basis to NetCDF file Ru.ion.nc
Dumping basis to NetCDF file Ti.ion.nc
Dumping basis to NetCDF file Ba.ion.nc
coor:   Atomic-coordinates input format  =     Cartesian coordinates
coor:                                          (in Angstroms)

siesta: Atomic coordinates (Bohr) and species
siesta:      3.65851   3.65851  25.26943  1        1
siesta:      0.00000   0.00000  25.26943  2        2
siesta:      3.65851   0.00000  29.00731  1        3
siesta:      0.00000   3.65851  29.00731  1        4
siesta:      3.65851   3.65851  29.00731  3        5
siesta:      3.65851   3.65851  32.74519  1        6
siesta:      0.00000   0.00000  32.74519  2        7
siesta:      3.65851   0.00000  36.48307  1        8
siesta:      0.00000   3.65851  36.48307  1        9
siesta:      3.65851   3.65851  36.48307  3       10
siesta:      3.65851   3.65851  40.22095  1       11
siesta:      0.00000   0.00000  40.22095  2       12
siesta:      3.65851   0.00000  43.95883  1       13
siesta:      0.00000   3.65851  43.95883  1       14
siesta:      3.65851   3.65851  43.95883  3       15
siesta:      3.65851   3.65851  47.69671  1       16
siesta:      0.00000   0.00000  47.69671  2       17
siesta:      3.65851   0.00000  51.39971  1       18
siesta:      0.00000   3.65851  51.39971  1       19
siesta:      3.65851   3.65851  51.40283  3       20
siesta:      3.65851   3.65851  55.10615  1       21
siesta:      0.00000   0.00000  55.11512  2       22
siesta:      3.65851   0.00000  58.82126  1       23
siesta:      0.00000   3.65851  58.82126  1       24
siesta:      3.65851   3.65851  58.82643  3       25
siesta:      3.65851   3.65851  62.53634  1       26
siesta:      0.00000   0.00000  62.55245  2       27
siesta:      3.65851   0.00000  66.28863  1       28
siesta:      0.00000   3.65851  66.28863  1       29
siesta:      3.65851   3.65851  66.30315  3       30
siesta:      3.65851   3.65851  70.00046  1       31
siesta:      0.00000   0.00000  70.01156  2       32
siesta:      3.65851   0.00000  73.57849  1       33
siesta:      0.00000   3.65851  73.57849  1       34
siesta:      3.65851   3.65851  73.61368  4       35
siesta:      3.65851   3.65851  77.40306  1       36
siesta:      0.00000   0.00000  77.40438  5       37
siesta:      3.65851   3.65851  81.19074  4       38
siesta:      3.65851   0.00000  81.19270  1       39
siesta:      0.00000   3.65851  81.19270  1       40
siesta:      3.65851   3.65851  84.98360  1       41
siesta:      0.00000   0.00000  84.98361  5       42
siesta:      3.65851   3.65851  88.77395  4       43
siesta:      3.65851   0.00000  88.77456  1       44
siesta:      0.00000   3.65851  88.77456  1       45
siesta:      3.65851   3.65851  92.56559  1       46
siesta:      0.00000   0.00000  92.56575  5       47
siesta:      3.65851   3.65851  96.35586  4       48
siesta:      3.65851   0.00000  96.35638  1       49
siesta:      0.00000   3.65851  96.35638  1       50
siesta:      3.65851   3.65851 100.14559  1       51
siesta:      0.00000   0.00000 100.14591  5       52
siesta:      3.65851   0.00000 103.93476  1       53
siesta:      0.00000   3.65851 103.93476  1       54
siesta:      3.65851   3.65851 103.93486  4       55
siesta:      3.65851   3.65851 107.72403  1       56
siesta:      0.00000   0.00000 107.72410  5       57
siesta:      3.65851   0.00000 111.51362  1       58
siesta:      0.00000   3.65851 111.51362  1       59
siesta:      3.65851   3.65851 111.51415  4       60
siesta:      3.65851   3.65851 115.30453  1       61
siesta:      0.00000   0.00000 115.30453  5       62
siesta:      3.65851   0.00000 119.09536  1       63
siesta:      0.00000   3.65851 119.09536  1       64
siesta:      3.65851   3.65851 119.09606  4       65
siesta:      3.65851   3.65851 122.88648  1       66
siesta:      0.00000   0.00000 122.88675  5       67
siesta:      3.65851   0.00000 126.67766  1       68
siesta:      0.00000   3.65851 126.67766  1       69
siesta:      3.65851   3.65851 126.67929  4       70
siesta:      0.00000   0.00000 130.46621  5       71
siesta:      3.65851   3.65851 130.46724  1       72
siesta:      3.65851   3.65851 134.25643  4       73
siesta:      3.65851   0.00000 134.29198  1       74
siesta:      0.00000   3.65851 134.29198  1       75
siesta:      0.00000   0.00000 137.85876  2       76
siesta:      3.65851   3.65851 137.86964  1       77
siesta:      3.65851   3.65851 141.56680  3       78
siesta:      3.65851   0.00000 141.58138  1       79
siesta:      0.00000   3.65851 141.58138  1       80
siesta:      0.00000   0.00000 145.31727  2       81
siesta:      3.65851   3.65851 145.33349  1       82
siesta:      3.65851   3.65851 149.04383  3       83
siesta:      3.65851   0.00000 149.04873  1       84
siesta:      0.00000   3.65851 149.04873  1       85
siesta:      0.00000   0.00000 152.75384  2       86
siesta:      3.65851   3.65851 152.76373  1       87
siesta:      3.65851   3.65851 156.46703  3       88
siesta:      3.65851   0.00000 156.47009  1       89
siesta:      0.00000   3.65851 156.47009  1       90
siesta:      3.65851   3.65851 160.17326  1       91
siesta:      0.00000   0.00000 160.17326  2       92
siesta:      3.65851   0.00000 163.91113  1       93
siesta:      0.00000   3.65851 163.91113  1       94
siesta:      3.65851   3.65851 163.91113  3       95
siesta:      3.65851   3.65851 167.64901  1       96
siesta:      0.00000   0.00000 167.64901  2       97
siesta:      3.65851   0.00000 171.38689  1       98
siesta:      0.00000   3.65851 171.38689  1       99
siesta:      3.65851   3.65851 171.38689  3      100
siesta:      3.65851   3.65851 175.12477  1      101
siesta:      0.00000   0.00000 175.12477  2      102
siesta:      3.65851   0.00000 178.86265  1      103
siesta:      0.00000   3.65851 178.86265  1      104
siesta:      3.65851   3.65851 178.86265  3      105
siesta:      3.65851   3.65851 182.60053  1      106
siesta:      0.00000   0.00000 182.60053  2      107

siesta: System type = slab      

initatomlists: Number of atoms, orbitals, and projectors:    107  1491  1836

coxmol: Writing XMOL coordinates into file Device.xyz                                                          

siesta: ******************** Simulation parameters ****************************
siesta:
siesta: The following are some of the parameters of the simulation.
siesta: A complete list of the parameters used, including default values,
siesta: can be found in file out.fdf
siesta:
redata: Spin configuration                          = none
redata: Number of spin components                   = 1
redata: Time-Reversal Symmetry                      = T
redata: Spin-spiral                                 = F
redata: Long output                                 =   F
redata: Number of Atomic Species                    =        5
redata: Charge density info will appear in .RHO file
redata: Write Mulliken Pop.                         = NO
redata: Matel table size (NRTAB)                    =     1024
redata: Mesh Cutoff                                 =   300.0000 Ry
redata: Net charge of the system                    =     0.0000 |e|
redata: Min. number of SCF Iter                     =        0
redata: Max. number of SCF Iter                     =      500
redata: SCF convergence failure will abort job
redata: SCF mix quantity                            = Hamiltonian
redata: Mix DM or H after convergence               =   F
redata: Recompute H after scf cycle                 =   F
redata: Mix DM in first SCF step                    =   T
redata: Write Pulay info on disk                    =   F
redata: New DM Mixing Weight                        =     0.0500
redata: New DM Occupancy tolerance                  = 0.000000000001
redata: No kicks to SCF
redata: DM Mixing Weight for Kicks                  =     0.5000
redata: Require Harris convergence for SCF          =   F
redata: Harris energy tolerance for SCF             =     0.000100 eV
redata: Require DM convergence for SCF              =   T
redata: DM tolerance for SCF                        =     0.000100
redata: Require EDM convergence for SCF             =   F
redata: EDM tolerance for SCF                       =     0.001000 eV
redata: Require H convergence for SCF               =   T
redata: Hamiltonian tolerance for SCF               =     0.001000 eV
redata: Require (free) Energy convergence for SCF   =   F
redata: (free) Energy tolerance for SCF             =     0.000100 eV
redata: Using Saved Data (generic)                  =   F
redata: Use continuation files for DM               =   T
redata: Neglect nonoverlap interactions             =   F
redata: Method of Calculation                       = Diagonalization
redata: Electronic Temperature                      =   299.9978 K
redata: Fix the spin of the system                  =   F
redata: Dynamics option                             = Single-point calculation
mix.SCF: Pulay mixing                            = Pulay
mix.SCF:    Variant                              = stable
mix.SCF:    History steps                        = 10
mix.SCF:    Linear mixing weight                 =     0.050000
mix.SCF:    Mixing weight                        =     0.050000
mix.SCF:    SVD condition                        = 0.1000E-07
redata: Save all siesta data in one NC              =   F
redata: ***********************************************************************

%block SCF.Mixers
  Pulay
%endblock SCF.Mixers

%block SCF.Mixer.Pulay
  # Mixing method
  method pulay
  variant stable

  # Mixing options
  weight 0.0500
  weight.linear 0.0500
  history 10
%endblock SCF.Mixer.Pulay
 
DM_history_depth set to one: no extrapolation allowed by default for geometry relaxation
Size of DM history Fstack: 1
Total number of electrons:   808.000000
Total ionic charge:   808.000000

* ProcessorY, Blocksize:    4  24


* Orbital distribution balance (max,min):    48    24

k-point displ. along   1 input, could be:     0.00    0.50
k-point displ. along   2 input, could be:     0.00    0.50
 Kpoints in:           60 . Kpoints trimmed:           56

siesta: k-grid: Number of k-points =    56
siesta: k-grid: Cutoff (effective) =    19.360 Ang
siesta: k-grid: Supercell and displacements
siesta: k-grid:   10   0   0      0.000
siesta: k-grid:    0  10   0      0.000
siesta: k-grid:    0   0   1      0.000
 
diag: Algorithm                                     = D&C
diag: Parallel over k                               =   F
diag: Use parallel 2D distribution                  =   T
diag: Parallel block-size                           = 24
diag: Parallel distribution                         =     4 x     8
diag: Used triangular part                          = Lower
diag: Absolute tolerance                            =  0.100E-15
diag: Orthogonalization factor                      =  0.100E-05
diag: Memory factor                                 =  1.0000
k-point displ. along   1 input, could be:     0.00    0.50
k-point displ. along   2 input, could be:     0.00    0.50
 Kpoints in:          480 . Kpoints trimmed:          466

siesta: PDOS.k-grid: Number of k-points =   466
siesta: PDOS.k-grid: Cutoff (effective) =    55.000 Ang
siesta: PDOS.k-grid: Supercell and displacements
siesta: PDOS.k-grid:   30   0   0      0.000
siesta: PDOS.k-grid:    0  30   0      0.000
siesta: PDOS.k-grid:    0   0   1      0.000

superc: Internal auxiliary supercell:     5 x     5 x     1  =      25
superc: Number of atoms, orbitals, and projectors:   2675  37275  45900
 
 
ts: **************************************************************
ts: Save H and S matrices                           =    T
ts: Save DM and EDM matrices                        =    T
ts: Fix Hartree potential                           =    F
ts: Only save the overlap matrix S                  =    F
ts: **************************************************************
 
************************ Begin: TS CHECKS AND WARNINGS ************************
************************ End: TS CHECKS AND WARNINGS **************************


                     ====================================
                        Single-point calculation
                     ====================================

outcoor: Atomic coordinates (Ang):                          
    1.93600000    1.93600000   13.37199990   1       1  O
    0.00000000    0.00000000   13.37199990   2       2  Sr
    1.93600000    0.00000000   15.35000010   1       3  O
    0.00000000    1.93600000   15.35000010   1       4  O
    1.93600000    1.93600000   15.35000010   3       5  Ru
    1.93600000    1.93600000   17.32799950   1       6  O
    0.00000000    0.00000000   17.32799950   2       7  Sr
    1.93600000    0.00000000   19.30600050   1       8  O
    0.00000000    1.93600000   19.30600050   1       9  O
    1.93600000    1.93600000   19.30600050   3      10  Ru
    1.93600000    1.93600000   21.28399980   1      11  O
    0.00000000    0.00000000   21.28399980   2      12  Sr
    1.93600000    0.00000000   23.26199920   1      13  O
    0.00000000    1.93600000   23.26199920   1      14  O
    1.93600000    1.93600000   23.26199920   3      15  Ru
    1.93600000    1.93600000   25.24000020   1      16  O
    0.00000000    0.00000000   25.24000020   2      17  Sr
    1.93600000    0.00000000   27.19954620   1      18  O
    0.00000000    1.93600000   27.19954620   1      19  O
    1.93600000    1.93600000   27.20119360   3      20  Ru
    1.93600000    1.93600000   29.16090850   1      21  O
    0.00000000    0.00000000   29.16565540   2      22  Sr
    1.93600000    0.00000000   31.12685860   1      23  O
    0.00000000    1.93600000   31.12685860   1      24  O
    1.93600000    1.93600000   31.12959270   3      25  Ru
    1.93600000    1.93600000   33.09279230   1      26  O
    0.00000000    0.00000000   33.10131910   2      27  Sr
    1.93600000    0.00000000   35.07841860   1      28  O
    0.00000000    1.93600000   35.07841860   1      29  O
    1.93600000    1.93600000   35.08610280   3      30  Ru
    1.93600000    1.93600000   37.04263120   1      31  O
    0.00000000    0.00000000   37.04850580   2      32  Sr
    1.93600000    0.00000000   38.93604670   1      33  O
    0.00000000    1.93600000   38.93604670   1      34  O
    1.93600000    1.93600000   38.95466720   4      35  Ti
    1.93600000    1.93600000   40.95992030   1      36  O
    0.00000000    0.00000000   40.96061530   5      37  Ba
    1.93600000    1.93600000   42.96427190   4      38  Ti
    1.93600000    0.00000000   42.96531110   1      39  O
    0.00000000    1.93600000   42.96531110   1      40  O
    1.93600000    1.93600000   44.97136410   1      41  O
    0.00000000    0.00000000   44.97137400   5      42  Ba
    1.93600000    1.93600000   46.97713200   4      43  Ti
    1.93600000    0.00000000   46.97745320   1      44  O
    0.00000000    1.93600000   46.97745320   1      45  O
    1.93600000    1.93600000   48.98358170   1      46  O
    0.00000000    0.00000000   48.98366360   5      47  Ba
    1.93600000    1.93600000   50.98930360   4      48  Ti
    1.93600000    0.00000000   50.98957900   1      49  O
    0.00000000    1.93600000   50.98957900   1      50  O
    1.93600000    1.93600000   52.99474030   1      51  O
    0.00000000    0.00000000   52.99491080   5      52  Ba
    1.93600000    0.00000000   54.99988530   1      53  O
    0.00000000    1.93600000   54.99988530   1      54  O
    1.93600000    1.93600000   54.99993770   4      55  Ti
    1.93600000    1.93600000   57.00507940   1      56  O
    0.00000000    0.00000000   57.00511870   5      57  Ba
    1.93600000    0.00000000   59.01044070   1      58  O
    0.00000000    1.93600000   59.01044070   1      59  O
    1.93600000    1.93600000   59.01072260   4      60  Ti
    1.93600000    1.93600000   61.01650360   1      61  O
    0.00000000    0.00000000   61.01650360   5      62  Ba
    1.93600000    0.00000000   63.02252710   1      63  O
    0.00000000    1.93600000   63.02252710   1      64  O
    1.93600000    1.93600000   63.02289430   4      65  Ti
    1.93600000    1.93600000   65.02870140   1      66  O
    0.00000000    0.00000000   65.02883910   5      67  Ba
    1.93600000    0.00000000   67.03490200   1      68  O
    0.00000000    1.93600000   67.03490200   1      69  O
    1.93600000    1.93600000   67.03576740   4      70  Ti
    0.00000000    0.00000000   69.03971910   5      71  Ba
    1.93600000    1.93600000   69.04026330   1      72  O
    1.93600000    1.93600000   71.04541480   4      73  Ti
    1.93600000    0.00000000   71.06422540   1      74  O
    0.00000000    1.93600000   71.06422540   1      75  O
    0.00000000    0.00000000   72.95168760   2      76  Sr
    1.93600000    1.93600000   72.95744420   1      77  O
    1.93600000    1.93600000   74.91389390   3      78  Ru
    1.93600000    0.00000000   74.92161100   1      79  O
    0.00000000    1.93600000   74.92161100   1      80  O
    0.00000000    0.00000000   76.89855640   2      81  Sr
    1.93600000    1.93600000   76.90713880   1      82  O
    1.93600000    1.93600000   78.87056470   3      83  Ru
    1.93600000    0.00000000   78.87316110   1      84  O
    0.00000000    1.93600000   78.87316110   1      85  O
    0.00000000    0.00000000   80.83382010   2      86  Sr
    1.93600000    1.93600000   80.83905220   1      87  O
    1.93600000    1.93600000   82.79875400   3      88  Ru
    1.93600000    0.00000000   82.80037340   1      89  O
    0.00000000    1.93600000   82.80037340   1      90  O
    1.93600000    1.93600000   84.76000310   1      91  O
    0.00000000    0.00000000   84.76000310   2      92  Sr
    1.93600000    0.00000000   86.73799750   1      93  O
    0.00000000    1.93600000   86.73799750   1      94  O
    1.93600000    1.93600000   86.73799750   3      95  Ru
    1.93600000    1.93600000   88.71599850   1      96  O
    0.00000000    0.00000000   88.71599850   2      97  Sr
    1.93600000    0.00000000   90.69399950   1      98  O
    0.00000000    1.93600000   90.69399950   1      99  O
    1.93600000    1.93600000   90.69399950   3     100  Ru
    1.93600000    1.93600000   92.67200050   1     101  O
    0.00000000    0.00000000   92.67200050   2     102  Sr
    1.93600000    0.00000000   94.65000150   1     103  O
    0.00000000    1.93600000   94.65000150   1     104  O
    1.93600000    1.93600000   94.65000150   3     105  Ru
    1.93600000    1.93600000   96.62800250   1     106  O
    0.00000000    0.00000000   96.62800250   2     107  Sr

superc: Internal auxiliary supercell:     5 x     5 x     1  =      25
superc: Number of atoms, orbitals, and projectors:   2675  37275  45900

outcell: Unit cell vectors (Ang):
        3.872000    0.000000    0.000000
        0.000000    3.872000    0.000000
        0.000000    0.000000  110.000000

outcell: Cell vector modules (Ang)   :    3.872000    3.872000  110.000000
outcell: Cell angles (23,13,12) (deg):     90.0000     90.0000     90.0000
outcell: Cell volume (Ang**3)        :   1649.1622
<dSpData1D:S at geom step 0
  <sparsity:sparsity for geom step 0
    nrows_g=1491 nrows=48 sparsity=.0313 nnzs=69564, refcount: 7>
  <dData1D:(new from dSpData1D) n=69564, refcount: 1>
refcount: 1>
new_DM -- step:     1
Initializing Density Matrix...
 
Attempting to read DM from file... Succeeded...
DM from file:
<dSpData2D:IO-DM: Device.DM
  <sparsity:IO-DM: Device.DM
    nrows_g=1491 nrows=48 sparsity=.0313 nnzs=69564, refcount: 1>
  <dData2D:(new from dSpData2D) n=69564 m=1, refcount: 1>
refcount: 1>
DM to be used:
<dSpData2D:Re-structured SpM
  <sparsity:sparsity for geom step 0
    nrows_g=1491 nrows=48 sparsity=.0313 nnzs=69564, refcount: 8>
  <dData2D:(new in restruct) n=69564 m=1, refcount: 1>
refcount: 1>
No. of atoms with KB's overlaping orbs in proc 0. Max # of overlaps:      64     514
New grid distribution:   1
           1       1:   24    1:    6    1:   72
           2       1:   24    1:    6   73:  144
           3       1:   24    1:    6  145:  216
           4       1:   24    1:    6  217:  288
           5       1:   24    1:    6  289:  360
           6       1:   24    1:    6  361:  432
           7       1:   24    1:    6  433:  504
           8       1:   24    1:    6  505:  576
           9       1:   24    7:   12    1:   72
          10       1:   24    7:   12   73:  144
          11       1:   24    7:   12  145:  216
          12       1:   24    7:   12  217:  288
          13       1:   24    7:   12  289:  360
          14       1:   24    7:   12  361:  432
          15       1:   24    7:   12  433:  504
          16       1:   24    7:   12  505:  576
          17       1:   24   13:   18    1:   72
          18       1:   24   13:   18   73:  144
          19       1:   24   13:   18  145:  216
          20       1:   24   13:   18  217:  288
          21       1:   24   13:   18  289:  360
          22       1:   24   13:   18  361:  432
          23       1:   24   13:   18  433:  504
          24       1:   24   13:   18  505:  576
          25       1:   24   19:   24    1:   72
          26       1:   24   19:   24   73:  144
          27       1:   24   19:   24  145:  216
          28       1:   24   19:   24  217:  288
          29       1:   24   19:   24  289:  360
          30       1:   24   19:   24  361:  432
          31       1:   24   19:   24  433:  504
          32       1:   24   19:   24  505:  576

InitMesh: MESH =    48 x    48 x  1152 =     2654208
InitMesh: (bp) =    24 x    24 x   576 =      331776
InitMesh: Mesh cutoff (required, used) =   300.000   303.125 Ry
ExtMesh (bp) on 0 =   132 x   114 x   164 =     2467872
New grid distribution:   2
           1       1:   24    1:   24    1:   84
           2       1:   24    1:   24  362:  374
           3       1:   24    1:   24  145:  159
           4       1:   24    1:   24  313:  325
           5       1:   24    1:   24  337:  349
           6       1:   24    1:   24  350:  361
           7       1:   24    1:   24  434:  448
           8       1:   24    1:   24  493:  576
           9       1:   24    1:   24  241:  251
          10       1:   24    1:   24   85:  100
          11       1:   24    1:   24  174:  188
          12       1:   24    1:   24  276:  288
          13       1:   24    1:   24  189:  202
          14       1:   24    1:   24  404:  418
          15       1:   24    1:   24  449:  462
          16       1:   24    1:   24  302:  312
          17       1:   24    1:   24  463:  477
          18       1:   24    1:   24  130:  144
          19       1:   24    1:   24  160:  173
          20       1:   24    1:   24  216:  227
          21       1:   24    1:   24  375:  388
          22       1:   24    1:   24  419:  433
          23       1:   24    1:   24  289:  301
          24       1:   24    1:   24  326:  336
          25       1:   24    1:   24  478:  492
          26       1:   24    1:   24  101:  115
          27       1:   24    1:   24  203:  215
          28       1:   24    1:   24  252:  264
          29       1:   24    1:   24  116:  129
          30       1:   24    1:   24  389:  403
          31       1:   24    1:   24  228:  240
          32       1:   24    1:   24  265:  275
New grid distribution:   3
           1       1:   24    1:   24    1:   69
           2       1:   24    1:   24  406:  420
           3       1:   24    1:   24  202:  216
           4       1:   24    1:   24  479:  492
           5       1:   24    1:   24  334:  347
           6       1:   24    1:   24  421:  434
           7       1:   24    1:   24  464:  478
           8       1:   24    1:   24  508:  576
           9       1:   24    1:   24  246:  259
          10       1:   24    1:   24  114:  128
          11       1:   24    1:   24  172:  186
          12       1:   24    1:   24  260:  274
          13       1:   24    1:   24  319:  333
          14       1:   24    1:   24  129:  142
          15       1:   24    1:   24  435:  449
          16       1:   24    1:   24  217:  230
          17       1:   24    1:   24  363:  376
          18       1:   24    1:   24   85:   99
          19       1:   24    1:   24  187:  201
          20       1:   24    1:   24  231:  245
          21       1:   24    1:   24  304:  318
          22       1:   24    1:   24  100:  113
          23       1:   24    1:   24  493:  507
          24       1:   24    1:   24  392:  405
          25       1:   24    1:   24  289:  303
          26       1:   24    1:   24   70:   84
          27       1:   24    1:   24  143:  157
          28       1:   24    1:   24  275:  288
          29       1:   24    1:   24  348:  362
          30       1:   24    1:   24  377:  391
          31       1:   24    1:   24  450:  463
          32       1:   24    1:   24  158:  171
Setting up quadratic distribution...
ExtMesh (bp) on 0 =   132 x   132 x   176 =     3066624
PhiOnMesh: Number of (b)points on node 0 =                48384
PhiOnMesh: nlist on node 0 =              1064714

efield: SlabDipoleCorrection enabled.
efield: A dipole layer will be introduced in the vacuum
efield: region to compensate the system dipole
Dipole moment in unit cell   =      0.0000      0.0000      0.0002 D
Electric field for dipole correction =    0.000000    0.000000   -0.000005 eV/Ang/e
 ##  multi-space constrained-search DFT(MS-DFT)  ##
 ##           YHK Group, EE, KAIST               ##
  Kim et al. arXiv[cond-mat.mes-hall],1808.03608 
 S-D voltage is applied: Vsd =   0.000000000000000E+000 eV

stepf: Fermi-Dirac step function
 MSDFT: left, right efs  -4.50139734550588       -4.50139734550588     
Dipole moment in unit cell   =      0.0000      0.0000     -2.3604 D
Electric field for dipole correction =    0.000000    0.000000    0.053920 eV/Ang/e

siesta: Program's energy decomposition (eV):
siesta: Ebs     =    -13767.163611
siesta: Eions   =     97789.364871
siesta: Ena     =     17241.823328
siesta: Ekin    =     35825.325193
siesta: Enl     =     -7657.902286
siesta: Eso     =         0.000000
siesta: Eldau   =         0.000000
siesta: DEna    =     -1323.890190
siesta: DUscf   =       171.905735
siesta: DUext   =         0.013249
siesta: Enegf   =         0.000000
siesta: Exc     =    -11374.605585
siesta: eta*DQ  =         0.000000
siesta: Emadel  =         0.000000
siesta: Emeta   =         0.000000
siesta: Emolmec =         0.000000
siesta: Ekinion =         0.000000
siesta: Eharris =    -64906.652480
siesta: Etot    =    -64906.695427
siesta: FreeEng =    -64906.845477

        iscf     Eharris(eV)        E_KS(eV)     FreeEng(eV)     dDmax    Ef(eV) dHmax(eV)
   scf:    1   -64906.652480   -64906.695427   -64906.845477  0.000564 -4.503317  3.107421
timer: Routine,Calls,Time,% = IterSCF        1      39.280  23.52
 MSDFT: left, right efs  -4.04746226110387       -4.04746226110387     
Dipole moment in unit cell   =      0.0000      0.0000   7575.7381 D
Electric field for dipole correction =    0.000000    0.000000 -173.059284 eV/Ang/e
   scf:    2   580775.143431   150293.682373   150293.613951  1.870264 -4.049188**********
 MSDFT: left, right efs  -4.50246730989526       -4.50246730989526     
Dipole moment in unit cell   =      0.0000      0.0000     10.6967 D
Electric field for dipole correction =    0.000000    0.000000   -0.244355 eV/Ang/e
   scf:    3   -65549.927366   -64905.369642   -64905.519330  1.870000 -4.504387 21.104397
 MSDFT: left, right efs  -4.50169181445229       -4.50169181445229     
Dipole moment in unit cell   =      0.0000      0.0000      7.6084 D
Electric field for dipole correction =    0.000000    0.000000   -0.173806 eV/Ang/e
   scf:    4   -64906.512789   -64906.485433   -64906.635565  0.010797 -4.503612 10.151721
 MSDFT: left, right efs  -4.50157735275310       -4.50157735275310     
Dipole moment in unit cell   =      0.0000      0.0000      2.0646 D
Electric field for dipole correction =    0.000000    0.000000   -0.047163 eV/Ang/e
   scf:    5   -64906.786807   -64906.701405   -64906.851478  0.002245 -4.503497  2.770081
 MSDFT: left, right efs  -4.50153980321722       -4.50153980321722     
Dipole moment in unit cell   =      0.0000      0.0000      1.0718 D
Electric field for dipole correction =    0.000000    0.000000   -0.024485 eV/Ang/e
   scf:    6   -64906.716995   -64906.711062   -64906.861125  0.000703 -4.503459  1.433603
 MSDFT: left, right efs  -4.50149711408910       -4.50149711408910     
Dipole moment in unit cell   =      0.0000      0.0000      0.6715 D
Electric field for dipole correction =    0.000000    0.000000   -0.015339 eV/Ang/e
   scf:    7   -64906.717613   -64906.715208   -64906.865260  0.000625 -4.503417  0.856780
mix: Pulay -- inversion failed, > SVD
 MSDFT: left, right efs  -4.50114761074518       -4.50114761074518     
Dipole moment in unit cell   =      0.0000      0.0000     -3.6888 D
Electric field for dipole correction =    0.000000    0.000000    0.084266 eV/Ang/e
   scf:    8   -64906.550385   -64906.667209   -64906.817286  0.001456 -4.503067  4.922884
mix: Pulay -- inversion failed, > SVD
 MSDFT: left, right efs  -4.50362901005834       -4.50362901005834     
Dipole moment in unit cell   =      0.0000      0.0000     52.8652 D
Electric field for dipole correction =    0.000000    0.000000   -1.207646 eV/Ang/e
   scf:    9   -64871.632005   -64895.477315   -64895.627069  0.029146 -4.505550 68.840186
mix: Pulay -- inversion failed, > SVD
 MSDFT: left, right efs  -4.50304748870718       -4.50304748870718     
Dipole moment in unit cell   =      0.0000      0.0000     10.6260 D
Electric field for dipole correction =    0.000000    0.000000   -0.242738 eV/Ang/e
   scf:   10   -64908.278147   -64906.103683   -64906.253529  0.025799 -4.504968 14.732255
mix: Pulay -- inversion failed, > SVD
 MSDFT: left, right efs  -4.48205572152555       -4.48205572152555     
Dipole moment in unit cell   =      0.0000      0.0000   -107.7386 D
Electric field for dipole correction =    0.000000    0.000000    2.461169 eV/Ang/e
   scf:   11   -64698.043304   -64841.356016   -64841.509290  0.095473 -4.483967152.316114
 MSDFT: left, right efs  -4.50143934619021       -4.50143934619021     
Dipole moment in unit cell   =      0.0000      0.0000      0.3259 D
Electric field for dipole correction =    0.000000    0.000000   -0.007445 eV/Ang/e
   scf:   12   -64906.450148   -64906.716474   -64906.866525  0.088214 -4.503359  0.420907
 MSDFT: left, right efs  -4.50142530875018       -4.50142530875018     
Dipole moment in unit cell   =      0.0000      0.0000      0.0049 D
Electric field for dipole correction =    0.000000    0.000000   -0.000112 eV/Ang/e
   scf:   13   -64906.716878   -64906.716881   -64906.866928  0.000095 -4.503345  0.030635
mix: Pulay -- inversion failed, > SVD
 MSDFT: left, right efs  -4.50139245669196       -4.50139245669196     
Dipole moment in unit cell   =      0.0000      0.0000      0.0666 D
Electric field for dipole correction =    0.000000    0.000000   -0.001522 eV/Ang/e
   scf:   14   -64906.716434   -64906.716722   -64906.866765  0.000234 -4.503312  0.158485
 MSDFT: left, right efs  -4.50136769726185       -4.50136769726185     
Dipole moment in unit cell   =      0.0000      0.0000      0.1122 D
Electric field for dipole correction =    0.000000    0.000000   -0.002563 eV/Ang/e
   scf:   15   -64906.716818   -64906.716835   -64906.866884  0.000252 -4.503287  0.151024
 MSDFT: left, right efs  -4.50135196882638       -4.50135196882638     
Dipole moment in unit cell   =      0.0000      0.0000      0.0658 D
Electric field for dipole correction =    0.000000    0.000000   -0.001503 eV/Ang/e
   scf:   16   -64906.716896   -64906.716871   -64906.866922  0.000033 -4.503272  0.088212
mix: Pulay -- inversion failed, > SVD
 MSDFT: left, right efs  -4.50135105593267       -4.50135105593267     
Dipole moment in unit cell   =      0.0000      0.0000      0.0331 D
Electric field for dipole correction =    0.000000    0.000000   -0.000756 eV/Ang/e
   scf:   17   -64906.716890   -64906.716885   -64906.866936  0.000057 -4.503271  0.045713
 MSDFT: left, right efs  -4.50135065028833       -4.50135065028833     
Dipole moment in unit cell   =      0.0000      0.0000      0.0370 D
Electric field for dipole correction =    0.000000    0.000000   -0.000845 eV/Ang/e
   scf:   18   -64906.716880   -64906.716884   -64906.866936  0.000043 -4.503270  0.048801
 MSDFT: left, right efs  -4.50135646217105       -4.50135646217105     
Dipole moment in unit cell   =      0.0000      0.0000      0.0107 D
Electric field for dipole correction =    0.000000    0.000000   -0.000245 eV/Ang/e
   scf:   19   -64906.716889   -64906.716888   -64906.866941  0.000035 -4.503276  0.015767
 MSDFT: left, right efs  -4.50135300252803       -4.50135300252803     
Dipole moment in unit cell   =      0.0000      0.0000      0.0028 D
Electric field for dipole correction =    0.000000    0.000000   -0.000064 eV/Ang/e
   scf:   20   -64906.716889   -64906.716889   -64906.866942  0.000018 -4.503273  0.004298
 MSDFT: left, right efs  -4.50135163678487       -4.50135163678487     
Dipole moment in unit cell   =      0.0000      0.0000      0.0019 D
Electric field for dipole correction =    0.000000    0.000000   -0.000043 eV/Ang/e
   scf:   21   -64906.716889   -64906.716889   -64906.866942  0.000002 -4.503271  0.002546
 MSDFT: left, right efs  -4.50135092174496       -4.50135092174496     
Dipole moment in unit cell   =      0.0000      0.0000      0.0009 D
Electric field for dipole correction =    0.000000    0.000000   -0.000020 eV/Ang/e
   scf:   22   -64906.716888   -64906.716889   -64906.866942  0.000003 -4.503270  0.001216
 MSDFT: left, right efs  -4.50135064769334       -4.50135064769334     
Dipole moment in unit cell   =      0.0000      0.0000      0.0006 D
Electric field for dipole correction =    0.000000    0.000000   -0.000014 eV/Ang/e
   scf:   23   -64906.716888   -64906.716888   -64906.866942  0.000002 -4.503270  0.001096
 MSDFT: left, right efs  -4.50135059452612       -4.50135059452612     
Dipole moment in unit cell   =      0.0000      0.0000      0.0017 D
Electric field for dipole correction =    0.000000    0.000000   -0.000040 eV/Ang/e
   scf:   24   -64906.716888   -64906.716888   -64906.866942  0.000001 -4.503270  0.002269
 MSDFT: left, right efs  -4.50135052836027       -4.50135052836027     
Dipole moment in unit cell   =      0.0000      0.0000      0.0008 D
Electric field for dipole correction =    0.000000    0.000000   -0.000019 eV/Ang/e
   scf:   25   -64906.716888   -64906.716888   -64906.866942  0.000001 -4.503270  0.001231
 MSDFT: left, right efs  -4.50135049542473       -4.50135049542473     
Dipole moment in unit cell   =      0.0000      0.0000      0.0012 D
Electric field for dipole correction =    0.000000    0.000000   -0.000028 eV/Ang/e
   scf:   26   -64906.716888   -64906.716888   -64906.866942  0.000001 -4.503270  0.001580
 MSDFT: left, right efs  -4.50135019550621       -4.50135019550621     
Dipole moment in unit cell   =      0.0000      0.0000      0.0003 D
Electric field for dipole correction =    0.000000    0.000000   -0.000007 eV/Ang/e
   scf:   27   -64906.716888   -64906.716888   -64906.866942  0.000001 -4.503270  0.000405

SCF Convergence by DM+H criterion
max |DM_out - DM_in|         :     0.0000007152
max |H_out - H_in|      (eV) :     0.0004051993
SCF cycle converged after 27 iterations

Using DM_out to compute the final energy and forces
No. of atoms with KB's overlaping orbs in proc 0. Max # of overlaps:      64     514
Dipole moment in unit cell   =      0.0000      0.0000      0.0003 D
Electric field for dipole correction =    0.000000    0.000000   -0.000007 eV/Ang/e

siesta: E_KS(eV) =           -64906.7169

siesta: E_KS - E_eggbox =    -64906.7169

siesta: Atomic forces (eV/Ang):
----------------------------------------
   Tot    0.000000    0.000000   -0.004032
----------------------------------------
   Max    1.940189
   Res    0.219019    sqrt( Sum f_i^2 / 3N )
----------------------------------------
   Max    1.940189    constrained

Stress-tensor-Voigt (kbar):      -18.97      -18.97       -1.64       -0.00        0.00       -0.00
(Free)E + p*V (eV/cell)   -64893.2846
Target enthalpy (eV/cell)   -64906.8669

coxmol: Writing XMOL coordinates into file Device.xyz                                                          

siesta: Eigenvalues (eV):
  ik is    eps
   1  1 -61.46 -61.46 -61.45 -61.45 -61.45 -61.45 -61.44 -61.38 -61.38 -39.78
        -39.78 -38.62 -38.62 -38.62 -38.62 -38.61 -38.61 -38.60 -38.60 -38.58
        -38.58 -38.35 -38.35 -38.23 -38.22 -38.21 -38.21 -38.21 -38.21 -38.21
        -38.15 -38.15 -38.15 -38.14 -38.14 -38.13 -38.13 -38.13 -38.13 -38.13
        -38.13 -38.13 -38.13 -38.12 -38.11 -38.10 -38.10 -38.09 -38.07 -38.07
        -30.79 -30.79 -30.75 -30.74 -30.72 -30.70 -30.69 -30.68 -24.02 -24.02
        -23.95 -23.95 -23.87 -23.87 -23.76 -23.76 -23.64 -23.64 -23.55 -23.55
        -23.09 -23.09 -23.05 -23.05 -22.97 -22.97 -22.93 -22.93 -22.88 -22.88
        -22.81 -22.80 -22.80 -22.79 -22.79 -22.78 -22.78 -22.76 -22.74 -22.74
        -22.72 -22.72 -22.70 -22.70 -22.69 -22.67 -22.67 -22.60 -22.54 -22.54
        -22.50 -22.42 -22.36 -22.21 -22.21 -21.88 -21.88 -21.78 -21.78 -21.73
        -21.73 -21.70 -21.69 -21.69 -21.69 -21.69 -21.67 -21.67 -21.65 -21.65
        -21.63 -21.60 -21.57 -21.52 -21.48 -21.44 -20.72 -20.72 -20.70 -20.70
        -20.70 -20.70 -20.69 -20.69 -20.67 -20.67 -20.66 -20.66 -20.65 -20.65
        -20.63 -20.63 -20.57 -20.57 -20.49 -20.49 -20.43 -20.43 -20.42 -20.42
        -20.33 -20.33 -20.31 -20.31 -20.28 -20.28 -20.25 -20.25 -20.23 -20.23
        -20.18 -20.18 -20.01 -20.01 -15.96 -15.96 -15.91 -15.91 -15.90 -15.89
        -15.88 -15.87 -15.87 -15.81 -15.77 -15.73 -15.73 -15.70 -15.70 -15.67
        -15.63 -15.63 -15.59 -15.56 -15.56 -15.53 -15.50 -15.45 -12.50 -12.50
        -12.49 -12.49 -12.48 -12.48 -12.47 -12.47 -12.46 -12.46 -12.45 -12.45
        -12.13 -12.13 -11.76 -11.76 -11.69 -11.69 -11.55 -11.55 -11.30 -11.30
        -11.19 -11.19 -10.95 -10.95 -10.66 -10.66 -10.51 -10.51 -10.34 -10.34
        -10.30 -10.30 -10.28 -10.24 -10.23 -10.23 -10.21 -10.21 -10.20 -10.17
        -10.14 -10.14 -10.14 -10.11 -10.08 -10.07 -10.07 -10.06 -10.06 -10.05
        -10.02 -10.00 -10.00  -9.98  -9.94  -9.94  -9.91  -9.91  -9.89  -9.77
         -9.77  -9.76  -9.72  -9.68  -9.66  -9.64  -9.64  -9.57  -9.54  -9.53
         -9.53  -9.43  -9.43  -9.38  -9.35  -9.17  -9.17  -9.15  -9.14  -9.08
         -9.08  -8.96  -8.95  -8.85  -8.82  -8.81  -8.78  -8.75  -8.75  -8.74
         -8.74  -8.72  -8.69  -8.69  -8.66  -8.63  -8.60  -8.57  -8.57  -8.56
         -8.56  -8.56  -8.56  -8.55  -8.55  -8.52  -8.52  -8.52  -8.49  -8.48
         -8.44  -8.38  -8.36  -8.35  -8.32  -8.32  -8.25  -8.24  -8.23  -8.21
         -8.17  -8.15  -8.14  -8.11  -8.10  -8.09  -8.09  -8.04  -8.04  -8.03
         -8.03  -7.97  -7.95  -7.95  -7.91  -7.90  -7.90  -7.88  -7.84  -7.82
[...]
         76.47  76.56  76.68  77.11  77.17  81.32  81.34  81.45  81.55  81.73
         82.25  82.98  83.82  84.68  85.41  85.90  86.11  86.45  87.95  87.95
         88.92  89.27  90.14  92.66  97.34  97.99  99.29 103.34 105.52 105.79
        106.68 108.23 111.20 111.21 111.57 112.69 114.78 117.63 120.92 124.24
        126.98
  56  1 -61.46 -61.46 -61.45 -61.45 -61.45 -61.44 -61.44 -61.38 -61.38 -39.76
        -39.76 -38.60 -38.60 -38.59 -38.59 -38.58 -38.58 -38.58 -38.58 -38.55
        -38.55 -38.30 -38.30 -38.23 -38.23 -38.23 -38.23 -38.22 -38.22 -38.21
        -38.21 -38.21 -38.21 -38.21 -38.21 -38.21 -38.21 -38.16 -38.16 -38.16
        -38.16 -38.14 -38.14 -38.13 -38.12 -38.11 -38.11 -38.10 -38.10 -38.09
        -30.67 -30.67 -30.63 -30.62 -30.61 -30.60 -30.58 -30.57 -23.04 -23.04
        -23.04 -23.04 -22.99 -22.99 -22.99 -22.99 -22.97 -22.97 -22.91 -22.91
        -22.91 -22.91 -22.82 -22.82 -22.82 -22.82 -22.79 -22.79 -22.71 -22.71
        -22.71 -22.71 -22.65 -22.65 -22.62 -22.62 -22.62 -22.62 -22.52 -22.52
        -22.36 -22.36 -22.27 -22.27 -22.12 -22.12 -21.96 -21.91 -21.83 -21.80
        -21.80 -21.80 -21.80 -21.79 -21.79 -21.79 -21.79 -21.73 -21.67 -21.67
        -21.65 -21.65 -21.63 -21.62 -21.62 -21.61 -21.61 -21.57 -21.57 -21.53
        -21.52 -21.52 -21.48 -21.48 -21.45 -21.45 -21.45 -21.40 -21.04 -21.04
        -21.02 -21.02 -21.02 -21.02 -20.97 -20.97 -20.89 -20.89 -20.89 -20.89
        -20.88 -20.88 -20.78 -20.78 -20.73 -20.73 -20.73 -20.73 -20.70 -20.70
        -20.58 -20.58 -20.58 -20.58 -20.57 -20.57 -20.47 -20.47 -20.47 -20.47
        -20.30 -20.30 -20.30 -20.30 -16.91 -16.91 -16.85 -16.85 -16.76 -16.75
        -16.75 -16.69 -16.61 -16.61 -16.56 -16.46 -16.46 -16.38 -16.31 -16.31
        -16.18 -16.18 -16.18 -16.09 -16.09 -15.97 -15.78 -15.64 -12.87 -12.87
        -12.87 -12.87 -12.87 -12.87 -12.86 -12.86 -12.86 -12.86 -12.85 -12.85
        -12.60 -12.60 -12.59 -12.59 -12.58 -12.58 -12.57 -12.57 -12.56 -12.56
        -12.56 -12.56 -12.07 -12.07 -11.98 -11.98 -11.98 -11.98 -11.82 -11.82
        -11.64 -11.64 -11.54 -11.54 -11.47 -11.47 -11.34 -11.34 -11.04 -11.04
        -11.04 -11.04 -10.99 -10.99 -10.94 -10.94 -10.94 -10.94 -10.85 -10.85
        -10.85 -10.85 -10.73 -10.73 -10.73 -10.73 -10.62 -10.60 -10.60 -10.60
        -10.60 -10.59 -10.56 -10.54 -10.53 -10.52 -10.51 -10.50 -10.50 -10.49
        -10.49 -10.49 -10.49 -10.35 -10.27 -10.23 -10.23 -10.10 -10.10 -10.10
        -10.09 -10.08 -10.08 -10.08 -10.08 -10.08 -10.07  -9.82  -9.70  -9.63
         -9.55  -9.52  -9.43  -9.22  -9.21  -9.12  -9.12  -9.12  -9.12  -9.01
         -8.93  -8.90  -8.90  -8.86  -8.78  -8.78  -8.71  -8.69  -8.62  -8.62
         -8.56  -8.47  -8.47  -8.39  -8.34  -8.34  -8.24  -8.24  -8.18  -8.18
         -8.05  -8.01  -8.00  -7.75  -7.66  -7.66  -7.66  -7.66  -7.54  -7.41
         -7.41  -7.41  -7.41  -7.16  -7.16  -7.16  -7.16  -6.92  -6.92  -6.92
         -6.92  -6.68  -6.68  -6.68  -6.68  -6.55  -6.55  -6.47  -6.47  -6.47
         -6.47  -6.47  -6.47  -6.45  -6.45  -6.43  -6.43  -6.41  -6.41  -6.39
         -6.39  -6.39  -6.39  -6.37  -6.37  -6.35  -6.35  -6.34  -6.34  -6.29
         -6.29  -6.20  -6.20  -6.08  -6.08  -5.97  -5.97  -5.86  -5.86  -5.79
         -5.79  -5.78  -5.78  -5.75  -5.74  -5.73  -5.71  -5.70  -5.68  -5.66
         -4.39  -4.39  -4.39  -4.39  -4.30  -4.30  -4.30  -4.30  -4.18  -4.18
         -4.18  -4.18  -4.03  -4.03  -4.03  -4.03  -4.00  -4.00  -3.96  -3.96
         -3.90  -3.90  -3.88  -3.88  -3.88  -3.88  -3.83  -3.83  -3.78  -3.78
         -3.78  -3.78  -3.76  -3.76  -3.71  -3.71  -2.40  -2.40  -1.86  -1.86
         -1.82  -1.82  -1.76  -1.76  -1.69  -1.69  -1.67  -1.67  -1.57  -1.57
         -1.48  -1.48  -1.42  -1.40  -1.40  -1.40  -1.37  -1.34  -1.34  -1.32
         -1.29  -1.29  -1.27  -1.23  -1.19  -1.15  -1.12  -0.83  -0.82  -0.56
         -0.42  -0.42  -0.42  -0.42  -0.29  -0.04   0.04   0.04   0.07   0.26
          0.53   0.58   0.68   0.82   0.86   0.88   0.88   0.88   0.88   0.96
          1.03   1.18   1.19   1.19   1.19   1.19   1.35   1.35   1.40   1.44
          1.48   1.48   1.48   1.51   1.54   1.55   1.55   1.63   1.65   1.66
          1.66   1.66   1.70   1.70   1.74   1.81   1.81   1.82   1.83   1.99
          1.99   2.15   2.15   2.16   2.16   2.17   2.17   2.18   2.18   2.19
          2.19   2.19   2.19   2.19   2.19   2.20   2.20   2.30   2.30   2.33
          2.34   2.34   2.36   2.38   2.44   2.46   2.49   2.52   2.52   2.52
          2.52   2.53   2.61   2.67   2.71   2.71   2.79   2.79   2.90   2.90
          2.91   2.91   3.01   3.01   3.07   3.07   3.11   3.12   3.12   3.13
          3.13   3.14   3.14   3.14   3.16   3.16   3.19   3.20   3.20   3.25
          3.30   3.41   3.43   3.44   3.44   3.44   3.63   3.70   3.70   3.79
          3.79   3.81   3.81   3.87   3.90   3.90   3.96   3.96   4.01   4.01
          4.10   4.10   4.15   4.19   4.19   4.20   4.20   4.21   4.21   4.44
          4.51   4.51   4.56   4.56   4.67   4.98   4.98   5.31   5.31   5.31
          5.31   5.31   5.35   5.37   5.37   5.44   5.55   5.64   5.64   5.67
          5.79   5.89   5.95   6.12   6.12   6.12   6.12   6.61   6.61   6.61
          6.61   6.83   6.83   7.13   7.13   7.13   7.13   7.60   7.60   7.60
          7.60   7.97   7.97   7.97   7.97   8.21   8.21   8.21   8.21   8.40
          8.40   8.55   8.63   8.76   8.76   8.77   8.77   8.78   8.96   9.07
          9.07   9.14   9.14   9.16   9.16   9.16   9.21   9.21   9.21   9.22
          9.29   9.29   9.36   9.39   9.39   9.41   9.41   9.44   9.44   9.48
          9.52   9.54   9.56   9.57   9.68   9.68   9.77   9.77   9.81   9.81
          9.85  10.00  10.00  10.02  10.16  10.16  10.20  10.25  10.26  10.37
         10.46  10.46  10.47  10.48  10.49  10.52  10.53  10.70  10.70  10.84
         10.84  10.85  10.85  11.00  11.34  11.34  11.64  11.94  11.94  12.25
         12.27  12.31  12.33  12.42  12.52  12.52  12.52  12.52  12.53  12.64
         12.70  12.70  12.70  12.70  12.93  12.93  12.93  12.93  13.02  13.04
         13.04  13.14  13.14  13.14  13.14  13.19  13.19  13.22  13.22  13.22
         13.22  13.25  13.25  13.26  13.26  13.49  13.49  13.62  13.63  13.95
         13.95  14.47  14.58  14.58  14.97  15.34  15.34  15.50  16.11  16.11
         16.54  16.55  16.78  16.78  17.27  17.27  17.34  18.29  18.50  18.93
         19.00  19.00  19.00  19.00  19.06  19.06  19.06  19.06  19.36  19.36
         19.36  19.36  19.65  19.90  19.90  19.90  19.90  19.93  20.60  21.08
         21.08  21.09  21.09  21.49  21.49  21.58  21.58  21.62  21.68  21.68
         21.90  21.90  21.98  22.05  22.05  22.11  22.11  22.17  22.29  22.29
         22.33  22.33  22.54  22.54  22.62  22.62  22.78  22.78  22.93  23.09
         23.09  23.19  23.19  23.36  23.58  23.58  23.77  23.90  23.94  23.94
         23.94  23.99  23.99  23.99  24.04  24.17  24.19  24.20  24.30  24.30
         24.40  24.40  24.42  24.70  24.74  24.81  24.81  24.93  24.93  25.11
         25.31  25.48  25.62  25.62  25.78  25.95  25.98  26.12  26.12  26.16
         26.16  26.48  26.48  26.54  26.54  26.58  26.69  26.71  27.22  27.22
         27.29  27.29  27.42  27.62  27.69  27.69  27.69  27.69  27.77  27.81
         27.84  28.04  28.04  28.33  28.46  28.46  28.48  28.48  28.52  28.60
         28.81  28.81  28.93  28.93  29.03  29.03  29.05  29.25  29.25  29.29
         29.30  29.30  29.32  29.39  29.39  29.54  29.54  29.55  29.66  29.66
         29.70  29.95  30.02  30.02  30.03  30.03  30.28  30.28  30.30  30.30
         30.30  30.30  30.42  30.42  30.45  30.55  30.65  30.74  30.82  30.83
         31.04  31.39  31.39  31.51  31.56  31.67  31.86  31.97  31.97  32.09
         32.11  32.13  32.22  32.24  32.24  32.28  32.39  32.42  32.59  32.59
         32.71  33.03  33.03  33.14  33.45  33.68  33.68  34.22  34.28  34.75
         34.83  34.83  35.06  35.19  35.27  35.32  35.32  35.34  35.34  35.34
         36.19  36.19  36.29  36.29  36.32  36.80  36.80  36.88  37.07  37.07
         37.17  37.29  37.60  37.60  37.63  37.72  37.73  37.73  38.61  38.84
         38.98  38.99  38.99  39.30  39.30  39.47  39.47  39.51  39.65  39.87
         40.06  40.06  40.08  40.08  40.34  40.36  40.60  40.96  41.01  41.03
         41.03  41.30  41.30  41.33  41.33  41.51  41.57  41.90  41.90  42.54
         42.54  42.71  42.87  42.88  42.93  43.43  44.13  44.15  44.53  44.81
         44.83  45.80  46.05  46.35  46.45  46.57  46.57  47.21  47.21  47.21
         47.21  47.71  47.71  47.84  47.84  47.96  47.96  47.96  47.96  48.10
         48.10  48.12  48.12  48.45  48.45  48.60  48.60  48.75  48.75  48.75
         48.75  49.23  49.30  49.30  49.33  49.33  49.36  49.36  49.44  49.44
         49.46  49.48  49.51  49.51  49.52  49.52  49.52  49.52  49.53  49.53
         49.53  49.53  49.54  49.54  49.60  49.60  49.68  49.68  49.80  49.80
         49.98  49.98  50.00  50.00  50.11  50.11  50.14  50.14  50.21  50.21
         50.26  50.26  50.40  50.40  50.41  50.41  50.44  50.44  50.45  50.45
         50.46  50.46  50.46  50.46  50.46  50.55  50.55  50.68  50.68  50.86
         50.90  50.90  50.94  50.94  50.97  50.97  50.99  50.99  51.11  51.11
         51.12  51.12  51.12  51.26  51.26  51.26  51.26  51.38  51.38  51.39
         51.39  51.39  51.40  51.41  51.43  51.43  51.43  51.43  51.43  51.46
         51.48  51.58  51.58  51.66  51.67  51.68  51.68  51.68  51.72  51.72
         51.74  51.74  51.74  51.74  51.77  51.77  51.78  51.78  51.79  51.80
         51.81  51.81  51.81  51.94  51.94  52.03  52.04  52.16  52.16  52.21
         52.21  52.30  52.30  52.34  52.34  52.42  52.43  52.44  52.44  52.51
         52.53  52.53  52.55  52.56  52.60  52.61  52.62  52.66  52.72  52.73
         52.73  52.73  52.85  52.85  52.87  52.88  52.93  52.97  52.99  53.07
         53.12  53.23  53.27  53.30  53.30  53.33  53.60  53.64  53.64  53.82
         53.86  53.94  53.94  54.22  54.22  54.24  54.24  54.32  54.37  54.44
         54.54  54.54  54.57  54.57  54.66  54.66  54.77  54.77  54.93  54.93
         54.94  54.94  55.08  55.08  55.22  55.22  55.24  55.24  55.24  55.29
         55.30  55.40  55.41  55.42  55.42  55.63  55.63  56.08  56.17  56.17
         56.25  56.25  56.41  56.43  56.43  56.51  56.51  56.71  56.71  56.74
         56.76  56.76  56.80  56.80  56.87  56.99  57.01  57.01  57.01  57.22
         57.22  57.26  57.26  57.27  57.27  57.32  57.36  57.38  57.53  57.53
         57.53  57.60  57.92  57.92  57.95  58.00  58.02  58.04  58.06  58.16
         58.16  58.17  58.17  58.27  58.28  58.29  58.31  58.33  58.41  58.41
         58.53  58.69  58.69  58.70  58.71  58.86  58.86  58.97  58.97  59.02
         59.05  59.11  59.11  59.11  59.16  59.35  59.44  59.46  59.49  59.51
         59.70  59.70  59.87  59.88  59.95  60.05  60.05  60.35  60.35  60.50
         60.75  60.75  60.79  60.88  60.88  60.96  61.03  61.04  61.04  61.38
         61.48  61.48  61.48  61.48  61.61  61.61  61.62  61.62  61.88  61.88
         62.02  62.02  62.28  62.28  62.41  62.43  62.43  62.43  62.43  62.49
         62.82  62.82  63.21  63.41  63.76  63.95  64.05  64.05  64.05  64.22
         64.22  64.29  64.37  64.37  64.76  64.76  64.79  64.79  64.79  64.79
         64.84  64.92  65.22  65.30  65.32  65.40  66.09  66.09  66.30  66.30
         66.41  66.44  66.44  66.44  66.57  66.57  66.86  67.26  67.26  67.43
         67.43  67.45  67.45  67.50  67.88  67.89  68.33  68.33  68.33  68.33
         69.76  69.76  69.78  69.78  69.81  69.81  69.83  69.83  69.83  69.83
         69.88  69.88  69.93  69.93  70.73  71.20  72.08  72.08  72.08  72.08
         72.97  73.99  74.38  74.70  75.02  75.57  75.69  76.33  76.36  76.98
         77.01  78.43  78.46  78.47  78.66  81.34  81.36  81.54  82.04  82.87
         83.95  85.15  85.30  85.37  86.26  86.99  87.06  87.32  91.09  94.08
         95.35  96.74 100.92 100.93 101.93 105.06 106.03 107.07 108.61 109.61
        114.55 114.56 118.69 118.73 119.55 120.07 122.46 125.82 129.44 132.76
        135.42
siesta: Fermi energy =      -4.503270 eV
siesta: PDOS info: 
siesta: e1, e2, sigma, nhist:   -28.00 eV   18.00 eV    0.01 eV   1001

siesta: Program's energy decomposition (eV):
siesta: Ebs     =    -13802.653843
siesta: Eions   =     97789.364871
siesta: Ena     =     17241.823328
siesta: Ekin    =     35825.316269
siesta: Enl     =     -7657.891920
siesta: Eso     =         0.000000
siesta: Eldau   =         0.000000
siesta: DEna    =     -1323.894322
siesta: DUscf   =       171.900070
siesta: DUext   =         0.000000
siesta: Enegf   =         0.000000
siesta: Exc     =    -11374.605441
siesta: eta*DQ  =         0.000000
siesta: Emadel  =         0.000000
siesta: Emeta   =         0.000000
siesta: Emolmec =         0.000000
siesta: Ekinion =         0.000000
siesta: Eharris =    -64906.716888
siesta: Etot    =    -64906.716888
siesta: FreeEng =    -64906.866942

siesta: Final energy (eV):
siesta:  Band Struct. =  -13802.653843
siesta:       Kinetic =   35825.316269
siesta:       Hartree = 2100821.277573
siesta:       Eldau   =       0.000000
siesta:       Eso     =       0.000000
siesta:    Ext. field =       0.000000
siesta:       Enegf   =       0.000000
siesta:   Exch.-corr. =  -11374.605441
siesta:  Ion-electron =-4236370.739374
siesta:       Ion-ion = 2046192.034085
siesta:       Ekinion =       0.000000
siesta:         Total =  -64906.716888
siesta:         Fermi =      -4.503270

siesta: Atomic forces (eV/Ang):
siesta:      1    0.000000    0.000000   -1.695875
siesta:      2   -0.000000    0.000000    1.940055
siesta:      3    0.000000    0.000000   -0.289341
siesta:      4   -0.000000    0.000000   -0.289341
siesta:      5    0.000000   -0.000000   -0.367487
siesta:      6    0.000000    0.000000    0.766190
siesta:      7    0.000000   -0.000000    0.079672
siesta:      8    0.000000   -0.000000    0.014146
siesta:      9    0.000000    0.000000    0.014146
siesta:     10   -0.000000    0.000000   -0.143567
siesta:     11    0.000000   -0.000000    0.147120
siesta:     12    0.000000    0.000000   -0.006900
siesta:     13    0.000000   -0.000000    0.001027
siesta:     14    0.000000    0.000000    0.001027
siesta:     15   -0.000000    0.000000   -0.041253
siesta:     16    0.000000    0.000000   -0.283714
siesta:     17   -0.000000   -0.000000   -0.037411
siesta:     18    0.000000   -0.000000   -0.002538
siesta:     19   -0.000000    0.000000   -0.002538
siesta:     20    0.000000    0.000000   -0.030324
siesta:     21    0.000000   -0.000000    0.004002
siesta:     22    0.000000   -0.000000    0.005245
siesta:     23    0.000000   -0.000000    0.005073
siesta:     24   -0.000000    0.000000    0.005073
siesta:     25    0.000000    0.000000   -0.035947
siesta:     26    0.000000    0.000000    0.021496
siesta:     27    0.000000   -0.000000    0.002204
siesta:     28    0.000000    0.000000   -0.038119
siesta:     29   -0.000000    0.000000   -0.038119
siesta:     30    0.000000   -0.000000    0.053436
siesta:     31    0.000000    0.000000    0.139778
siesta:     32   -0.000000   -0.000000    0.032437
siesta:     33   -0.000000   -0.000000   -0.014372
siesta:     34   -0.000000    0.000000   -0.014372
siesta:     35    0.000000   -0.000000    0.012690
siesta:     36    0.000000    0.000000    0.054616
siesta:     37   -0.000000   -0.000000    0.014002
siesta:     38    0.000000    0.000000   -0.061739
siesta:     39    0.000000   -0.000000   -0.004294
siesta:     40    0.000000    0.000000   -0.004294
siesta:     41   -0.000000    0.000000    0.000925
siesta:     42    0.000000   -0.000000    0.009275
siesta:     43    0.000000    0.000000   -0.019855
siesta:     44    0.000000   -0.000000    0.000564
siesta:     45   -0.000000    0.000000    0.000564
siesta:     46    0.000000   -0.000000   -0.001583
siesta:     47   -0.000000    0.000000   -0.000884
siesta:     48    0.000000    0.000000   -0.009981
siesta:     49    0.000000    0.000000   -0.003067
siesta:     50   -0.000000   -0.000000   -0.003067
siesta:     51    0.000000    0.000000   -0.000789
siesta:     52    0.000000    0.000000   -0.002639
siesta:     53    0.000000    0.000000    0.000976
siesta:     54   -0.000000    0.000000    0.000976
siesta:     55    0.000000    0.000000   -0.002993
siesta:     56    0.000000    0.000000    0.005663
siesta:     57   -0.000000   -0.000000    0.000602
siesta:     58    0.000000    0.000000    0.003244
siesta:     59   -0.000000   -0.000000    0.003244
siesta:     60    0.000000    0.000000    0.009461
siesta:     61    0.000000    0.000000    0.000708
siesta:     62   -0.000000   -0.000000   -0.000616
siesta:     63    0.000000   -0.000000    0.000514
siesta:     64    0.000000    0.000000    0.000514
siesta:     65   -0.000000    0.000000    0.020387
siesta:     66    0.000000    0.000000   -0.000429
siesta:     67    0.000000    0.000000   -0.010469
siesta:     68    0.000000    0.000000    0.003004
siesta:     69    0.000000    0.000000    0.003004
siesta:     70    0.000000    0.000000    0.065480
siesta:     71    0.000000   -0.000000   -0.014679
siesta:     72    0.000000    0.000000   -0.055265
siesta:     73    0.000000    0.000000   -0.007716
siesta:     74    0.000000    0.000000    0.013244
siesta:     75    0.000000    0.000000    0.013244
siesta:     76   -0.000000   -0.000000   -0.031785
siesta:     77    0.000000   -0.000000   -0.140408
siesta:     78    0.000000    0.000000   -0.052536
siesta:     79    0.000000   -0.000000    0.037967
siesta:     80   -0.000000    0.000000    0.037967
siesta:     81   -0.000000    0.000000   -0.002078
siesta:     82    0.000000    0.000000   -0.018016
siesta:     83   -0.000000   -0.000000    0.026392
siesta:     84    0.000000    0.000000   -0.004629
siesta:     85    0.000000    0.000000   -0.004629
siesta:     86    0.000000    0.000000   -0.003674
siesta:     87    0.000000    0.000000   -0.002435
siesta:     88    0.000000    0.000000    0.031204
siesta:     89    0.000000    0.000000    0.002866
siesta:     90   -0.000000   -0.000000    0.002866
siesta:     91    0.000000   -0.000000    0.282483
siesta:     92    0.000000    0.000000    0.030396
siesta:     93    0.000000    0.000000   -0.001030
siesta:     94   -0.000000    0.000000   -0.001030
siesta:     95    0.000000    0.000000    0.041468
siesta:     96    0.000000   -0.000000   -0.147057
siesta:     97   -0.000000    0.000000    0.006892
siesta:     98    0.000000   -0.000000   -0.014143
siesta:     99   -0.000000    0.000000   -0.014143
siesta:    100    0.000000    0.000000    0.143549
siesta:    101    0.000000    0.000000   -0.766186
siesta:    102   -0.000000    0.000000   -0.079677
siesta:    103    0.000000    0.000000    0.289339
siesta:    104   -0.000000    0.000000    0.289339
siesta:    105   -0.000000    0.000000    0.367449
siesta:    106   -0.000000   -0.000000    1.695987
siesta:    107   -0.000000    0.000000   -1.940189
siesta: ----------------------------------------
siesta:    Tot    0.000000    0.000000   -0.004032

siesta: Stress tensor (static) (eV/Ang**3):
siesta:    -0.011841   -0.000000    0.000000
siesta:    -0.000000   -0.011841    0.000000
siesta:    -0.000000    0.000000   -0.001026

siesta: Cell volume =       1649.162240 Ang**3

siesta: Pressure (static):
siesta:                Solid            Molecule  Units
siesta:           0.00008970          0.00007183  Ry/Bohr**3
siesta:           0.00823589          0.00659502  eV/Ang**3
siesta:          13.19549372         10.56650620  kBar
(Free)E+ p_basis*V_orbitals  =      -64840.277113
(Free)Eharris+ p_basis*V_orbitals  =      -64840.277113

siesta: Electric dipole (a.u.)  =    0.000000    0.000000    0.000124
siesta: Electric dipole (Debye) =    0.000000    0.000000    0.000315
Dipole moment in unit cell   =      0.0000      0.0000      0.0003 D
Electric field for dipole correction =    0.000000    0.000000   -0.000007 eV/Ang/e

dhscf: Vacuum level (max, mean) =   -3.560082   -4.025015 eV
>> End of run:  19-MAR-2026  18:07:55
Job completed
